# vtk DataFile Version 3.0
Output from R2
ASCII
DATASET UNSTRUCTURED_GRID
POINTS       2940 double
     0.00000     0.00000   0.
     0.00000    -0.06250   0.
     0.00000    -0.14060   0.
     0.00000    -0.23830   0.
     0.00000    -0.36040   0.
     0.00000    -0.51290   0.
     0.00000    -0.70370   0.
     0.00000    -0.94210   0.
     0.00000    -1.24010   0.
     0.00000    -1.61260   0.
     0.00000    -2.07830   0.
     0.00000    -2.66040   0.
     0.00000    -3.38800   0.
     0.00000    -4.29750   0.
     0.00000    -5.43430   0.
     0.25000     0.00000   0.
     0.25000    -0.06250   0.
     0.25000    -0.14060   0.
     0.25000    -0.23830   0.
     0.25000    -0.36040   0.
     0.25000    -0.51290   0.
     0.25000    -0.70370   0.
     0.25000    -0.94210   0.
     0.25000    -1.24010   0.
     0.25000    -1.61260   0.
     0.25000    -2.07830   0.
     0.25000    -2.66040   0.
     0.25000    -3.38800   0.
     0.25000    -4.29750   0.
     0.25000    -5.43430   0.
     0.50000     0.00000   0.
     0.50000    -0.06250   0.
     0.50000    -0.14060   0.
     0.50000    -0.23830   0.
     0.50000    -0.36040   0.
     0.50000    -0.51290   0.
     0.50000    -0.70370   0.
     0.50000    -0.94210   0.
     0.50000    -1.24010   0.
     0.50000    -1.61260   0.
     0.50000    -2.07830   0.
     0.50000    -2.66040   0.
     0.50000    -3.38800   0.
     0.50000    -4.29750   0.
     0.50000    -5.43430   0.
     0.75000     0.00000   0.
     0.75000    -0.06250   0.
     0.75000    -0.14060   0.
     0.75000    -0.23830   0.
     0.75000    -0.36040   0.
     0.75000    -0.51290   0.
     0.75000    -0.70370   0.
     0.75000    -0.94210   0.
     0.75000    -1.24010   0.
     0.75000    -1.61260   0.
     0.75000    -2.07830   0.
     0.75000    -2.66040   0.
     0.75000    -3.38800   0.
     0.75000    -4.29750   0.
     0.75000    -5.43430   0.
     1.00000     0.00000   0.
     1.00000    -0.06250   0.
     1.00000    -0.14060   0.
     1.00000    -0.23830   0.
     1.00000    -0.36040   0.
     1.00000    -0.51290   0.
     1.00000    -0.70370   0.
     1.00000    -0.94210   0.
     1.00000    -1.24010   0.
     1.00000    -1.61260   0.
     1.00000    -2.07830   0.
     1.00000    -2.66040   0.
     1.00000    -3.38800   0.
     1.00000    -4.29750   0.
     1.00000    -5.43430   0.
     1.25000     0.00000   0.
     1.25000    -0.06250   0.
     1.25000    -0.14060   0.
     1.25000    -0.23830   0.
     1.25000    -0.36040   0.
     1.25000    -0.51290   0.
     1.25000    -0.70370   0.
     1.25000    -0.94210   0.
     1.25000    -1.24010   0.
     1.25000    -1.61260   0.
     1.25000    -2.07830   0.
     1.25000    -2.66040   0.
     1.25000    -3.38800   0.
     1.25000    -4.29750   0.
     1.25000    -5.43430   0.
     1.50000     0.00000   0.
     1.50000    -0.06250   0.
     1.50000    -0.14060   0.
     1.50000    -0.23830   0.
     1.50000    -0.36040   0.
     1.50000    -0.51290   0.
     1.50000    -0.70370   0.
     1.50000    -0.94210   0.
     1.50000    -1.24010   0.
     1.50000    -1.61260   0.
     1.50000    -2.07830   0.
     1.50000    -2.66040   0.
     1.50000    -3.38800   0.
     1.50000    -4.29750   0.
     1.50000    -5.43430   0.
     1.75000     0.00000   0.
     1.75000    -0.06250   0.
     1.75000    -0.14060   0.
     1.75000    -0.23830   0.
     1.75000    -0.36040   0.
     1.75000    -0.51290   0.
     1.75000    -0.70370   0.
     1.75000    -0.94210   0.
     1.75000    -1.24010   0.
     1.75000    -1.61260   0.
     1.75000    -2.07830   0.
     1.75000    -2.66040   0.
     1.75000    -3.38800   0.
     1.75000    -4.29750   0.
     1.75000    -5.43430   0.
     2.00000     0.00000   0.
     2.00000    -0.06250   0.
     2.00000    -0.14060   0.
     2.00000    -0.23830   0.
     2.00000    -0.36040   0.
     2.00000    -0.51290   0.
     2.00000    -0.70370   0.
     2.00000    -0.94210   0.
     2.00000    -1.24010   0.
     2.00000    -1.61260   0.
     2.00000    -2.07830   0.
     2.00000    -2.66040   0.
     2.00000    -3.38800   0.
     2.00000    -4.29750   0.
     2.00000    -5.43430   0.
     2.25000     0.00000   0.
     2.25000    -0.06250   0.
     2.25000    -0.14060   0.
     2.25000    -0.23830   0.
     2.25000    -0.36040   0.
     2.25000    -0.51290   0.
     2.25000    -0.70370   0.
     2.25000    -0.94210   0.
     2.25000    -1.24010   0.
     2.25000    -1.61260   0.
     2.25000    -2.07830   0.
     2.25000    -2.66040   0.
     2.25000    -3.38800   0.
     2.25000    -4.29750   0.
     2.25000    -5.43430   0.
     2.50000     0.00000   0.
     2.50000    -0.06250   0.
     2.50000    -0.14060   0.
     2.50000    -0.23830   0.
     2.50000    -0.36040   0.
     2.50000    -0.51290   0.
     2.50000    -0.70370   0.
     2.50000    -0.94210   0.
     2.50000    -1.24010   0.
     2.50000    -1.61260   0.
     2.50000    -2.07830   0.
     2.50000    -2.66040   0.
     2.50000    -3.38800   0.
     2.50000    -4.29750   0.
     2.50000    -5.43430   0.
     2.75000     0.00000   0.
     2.75000    -0.06250   0.
     2.75000    -0.14060   0.
     2.75000    -0.23830   0.
     2.75000    -0.36040   0.
     2.75000    -0.51290   0.
     2.75000    -0.70370   0.
     2.75000    -0.94210   0.
     2.75000    -1.24010   0.
     2.75000    -1.61260   0.
     2.75000    -2.07830   0.
     2.75000    -2.66040   0.
     2.75000    -3.38800   0.
     2.75000    -4.29750   0.
     2.75000    -5.43430   0.
     3.00000     0.00000   0.
     3.00000    -0.06250   0.
     3.00000    -0.14060   0.
     3.00000    -0.23830   0.
     3.00000    -0.36040   0.
     3.00000    -0.51290   0.
     3.00000    -0.70370   0.
     3.00000    -0.94210   0.
     3.00000    -1.24010   0.
     3.00000    -1.61260   0.
     3.00000    -2.07830   0.
     3.00000    -2.66040   0.
     3.00000    -3.38800   0.
     3.00000    -4.29750   0.
     3.00000    -5.43430   0.
     3.25000     0.00000   0.
     3.25000    -0.06250   0.
     3.25000    -0.14060   0.
     3.25000    -0.23830   0.
     3.25000    -0.36040   0.
     3.25000    -0.51290   0.
     3.25000    -0.70370   0.
     3.25000    -0.94210   0.
     3.25000    -1.24010   0.
     3.25000    -1.61260   0.
     3.25000    -2.07830   0.
     3.25000    -2.66040   0.
     3.25000    -3.38800   0.
     3.25000    -4.29750   0.
     3.25000    -5.43430   0.
     3.50000     0.00000   0.
     3.50000    -0.06250   0.
     3.50000    -0.14060   0.
     3.50000    -0.23830   0.
     3.50000    -0.36040   0.
     3.50000    -0.51290   0.
     3.50000    -0.70370   0.
     3.50000    -0.94210   0.
     3.50000    -1.24010   0.
     3.50000    -1.61260   0.
     3.50000    -2.07830   0.
     3.50000    -2.66040   0.
     3.50000    -3.38800   0.
     3.50000    -4.29750   0.
     3.50000    -5.43430   0.
     3.75000     0.00000   0.
     3.75000    -0.06250   0.
     3.75000    -0.14060   0.
     3.75000    -0.23830   0.
     3.75000    -0.36040   0.
     3.75000    -0.51290   0.
     3.75000    -0.70370   0.
     3.75000    -0.94210   0.
     3.75000    -1.24010   0.
     3.75000    -1.61260   0.
     3.75000    -2.07830   0.
     3.75000    -2.66040   0.
     3.75000    -3.38800   0.
     3.75000    -4.29750   0.
     3.75000    -5.43430   0.
     4.00000     0.00000   0.
     4.00000    -0.06250   0.
     4.00000    -0.14060   0.
     4.00000    -0.23830   0.
     4.00000    -0.36040   0.
     4.00000    -0.51290   0.
     4.00000    -0.70370   0.
     4.00000    -0.94210   0.
     4.00000    -1.24010   0.
     4.00000    -1.61260   0.
     4.00000    -2.07830   0.
     4.00000    -2.66040   0.
     4.00000    -3.38800   0.
     4.00000    -4.29750   0.
     4.00000    -5.43430   0.
     4.25000     0.00000   0.
     4.25000    -0.06250   0.
     4.25000    -0.14060   0.
     4.25000    -0.23830   0.
     4.25000    -0.36040   0.
     4.25000    -0.51290   0.
     4.25000    -0.70370   0.
     4.25000    -0.94210   0.
     4.25000    -1.24010   0.
     4.25000    -1.61260   0.
     4.25000    -2.07830   0.
     4.25000    -2.66040   0.
     4.25000    -3.38800   0.
     4.25000    -4.29750   0.
     4.25000    -5.43430   0.
     4.50000     0.00000   0.
     4.50000    -0.06250   0.
     4.50000    -0.14060   0.
     4.50000    -0.23830   0.
     4.50000    -0.36040   0.
     4.50000    -0.51290   0.
     4.50000    -0.70370   0.
     4.50000    -0.94210   0.
     4.50000    -1.24010   0.
     4.50000    -1.61260   0.
     4.50000    -2.07830   0.
     4.50000    -2.66040   0.
     4.50000    -3.38800   0.
     4.50000    -4.29750   0.
     4.50000    -5.43430   0.
     4.75000     0.00000   0.
     4.75000    -0.06250   0.
     4.75000    -0.14060   0.
     4.75000    -0.23830   0.
     4.75000    -0.36040   0.
     4.75000    -0.51290   0.
     4.75000    -0.70370   0.
     4.75000    -0.94210   0.
     4.75000    -1.24010   0.
     4.75000    -1.61260   0.
     4.75000    -2.07830   0.
     4.75000    -2.66040   0.
     4.75000    -3.38800   0.
     4.75000    -4.29750   0.
     4.75000    -5.43430   0.
     5.00000     0.00000   0.
     5.00000    -0.06250   0.
     5.00000    -0.14060   0.
     5.00000    -0.23830   0.
     5.00000    -0.36040   0.
     5.00000    -0.51290   0.
     5.00000    -0.70370   0.
     5.00000    -0.94210   0.
     5.00000    -1.24010   0.
     5.00000    -1.61260   0.
     5.00000    -2.07830   0.
     5.00000    -2.66040   0.
     5.00000    -3.38800   0.
     5.00000    -4.29750   0.
     5.00000    -5.43430   0.
     5.25000     0.00000   0.
     5.25000    -0.06250   0.
     5.25000    -0.14060   0.
     5.25000    -0.23830   0.
[...]
POINT_DATA      2940
CELL_DATA      2730
SCALARS Resistivity(Ohm-m) double 1
LOOKUP_TABLE default
            57.64449            64.48439            73.15007            83.43386            94.91696           106.14039           115.68281           122.92908           128.01584           131.44292           133.75367           135.36095           136.52570           137.39698            38.50730            52.18802            63.29140            76.00512            91.30923           106.53457           118.95209           127.54264           132.76809           135.68666           137.26313           138.14765           138.69283           139.05805            57.56659            58.65242            58.87788            67.90214            85.03411           104.73461           121.32700           132.23215           138.00247           140.45037           141.19199           141.23054           141.05063           140.83027            37.88343            45.56241            47.60905            57.46682            76.87094           100.91494           122.31061           136.43439           143.32486           145.49594           145.39544           144.52013           143.54144           142.69164            51.31757            52.52084            48.65287            54.71262            72.41709            97.69332           122.57749           139.99857           148.42835           150.57858           149.71356           147.91036           146.11035           144.61046            88.37672            70.41750            58.66346            59.09371            72.50934            96.16273           122.61751           142.84509           153.05652           155.47610           153.99494           151.32237           148.71253           146.56057            29.43287            39.89071            51.04761            59.08111            72.14136            94.55842           121.95062           144.73112           156.99273           160.03410           158.15155           154.69423           151.30608           148.49700            38.39222            42.07652            51.19084            58.30928            69.98656            91.63665           120.09982           145.50907           160.15478           164.18080           162.11269           157.97597           153.83920           150.39419            59.48254            48.02377            47.75706            52.34197            64.31706            86.83451           117.08075           145.36267           162.66031           167.95079           165.88158           161.14200           156.29958           152.23694            49.77408            43.02265            42.20630            46.80430            59.28694            82.44967           114.17427           145.06243           164.93560           171.53730           169.51580           164.21306           158.68124           154.01783            49.80040            43.54834            42.09837            45.83586            57.58754            80.41020           112.80702           145.58823           167.53159           175.19280           173.12115           167.21114           160.98386           155.72550            54.18030            44.73156            43.20152            46.87170            58.29563            80.87268           113.62144           147.59410           170.88681           179.12353           176.75757           170.14663           163.19328           157.33726            40.37816            39.79942            43.60732            49.09690            60.83227            83.46839           116.52933           151.17441           175.08488           183.35159           180.40555           172.97734           165.27302           158.83377            36.02397            39.81890            44.19028            50.08642            62.78391            86.52264           120.50652           155.74618           179.81259           187.67580           183.92697           175.61832           167.17205           160.17723            58.32672            48.35583            43.99123            48.36036            62.82137            88.85988           124.50343           160.48991           184.51173           191.76746           187.13155           177.95706           168.81702           161.32458            56.59982            49.07989            44.45033            49.08121            64.52586            91.78729           128.41133           164.81626           188.64862           195.24887           189.78597           179.85044           170.12718           162.22082            35.12511            40.81356            44.92406            52.62442            68.55357            95.61552           132.05203           168.29349           191.76537           197.78385           191.66395           181.16377           171.01870           162.82600            50.63104            47.70985            49.86991            57.33252            72.82866            99.20620           134.93371           170.58074           193.56034           199.11878           192.60442           181.79867           171.44404           163.11021            30.90052            35.14515            45.26010            58.07392            75.68052           102.09909           136.94811           171.60372           193.89481           199.13152           192.51321           181.70268           171.36683           163.05869            43.03045            40.66746            50.50792            63.93400            80.84740           105.63358           138.51756           171.45763           192.77975           197.79766           191.38209           180.87048           170.79424           162.67261            26.00141            32.75909            51.91516            70.27735            86.88979           109.25567           139.38521           170.07857           190.24284           195.19318           189.26905           179.34680           169.74978           161.97117            27.95318            36.73497            58.33131            76.77932            91.51042           111.33636           138.80938           167.30813           186.40832           191.47983           186.31464           177.22679           168.30018           160.99744            53.51928            54.32736            66.32048            78.55431            91.39028           110.31269           136.36788           163.29591           181.60095           186.97123           182.73315           174.65037           166.53162           159.79951            31.59674            45.01185            59.20464            72.00400            86.66014           106.89091           132.82410           158.77593           176.42819           182.09310           178.81128           171.79277           164.54794           158.44968            76.97056            70.76422            65.93321            69.64364            82.72552           103.75561           129.82067           154.84218           171.62064           177.32494           174.84309           168.83613           162.46471           157.00891            44.70953            50.33031            52.68309            61.64826            78.87317           102.43477           128.79986           152.45542           167.77522           173.05128           171.08279           165.93980           160.37867           155.55403            55.58179            57.43562            57.50243            65.75576            82.99134           106.25048           131.05679           152.10637           165.14710           169.45890           167.68209           163.22444           158.38064           154.13076            55.84798            63.98999            66.72028            75.28984            91.86819           113.58921           135.64455           153.24548           163.49390           166.51747           164.69143           160.75400           156.52326           152.79434            55.75000            63.13505            67.32612            78.81861            97.99803           120.24595           140.31682           154.71420           162.30798           164.05055           162.09189           158.56129           154.84895           151.56795            53.26928            59.79092            65.86379            80.52143           102.50822           125.49727           143.96289           155.74991           161.21014           161.93252           159.85890           156.66069           153.38057           150.48354            46.10604            58.20015            68.85058            85.50314           107.79394           129.84414           146.49345           156.24197           160.16347           160.14986           158.00874           155.07500           152.14096           149.55307            48.95190            59.72654            70.75349            88.18977           110.95906           132.72158           148.27551           156.60835           159.39524           158.81956           156.59293           153.83393           151.14822           148.79488            53.80731            62.86601            72.72811            90.40592           114.01200           135.93454           150.58151           157.56372           159.25430           158.07452           155.66619           152.95862           150.41493           148.21375            51.38531            63.73438            74.47827            93.20875           118.23395           140.53240           154.10159           159.48382           159.89294           157.97586           155.24297           152.45351           149.93759           147.80745            42.55103            55.65023            68.33704            90.93278           120.43879           145.07335           158.24710           162.13319           161.21926           158.46137           155.28130           152.28373           149.69836           147.56706            45.20988            54.98025            67.08288            91.54756           123.94155           150.02545           162.59591           165.10043           162.97744           159.39287           155.69619           152.40457           149.66655           147.46693            27.50520            44.76588            65.03350            94.84666           129.57105           155.44141           166.73029           167.98682           164.89932           160.59862           156.38705           152.74616           149.79734           147.48527            40.84465            53.78794            73.26953           103.11378           136.51949           160.30057           170.07524           170.48754           166.80348           161.94856           157.25015           153.24049           150.04562           147.58468            32.42326            49.13107            73.35797           106.01384           139.71157           162.82683           172.27229           172.58369           168.65076           163.37527           158.21303           153.82208           150.36274           147.73938            37.75719            52.17646            75.39439           107.47727           140.82352           164.18358           174.15531           174.70131           170.58329           164.86030           159.21715           154.42937           150.69904           147.91017            34.45696            49.09277            72.34208           105.28019           140.62320           165.98452           176.89501           177.39162           172.73393           166.38311           160.19209           155.00446           151.01122           148.06460            30.03493            44.58402            67.06395           101.63898           141.08708           169.67614           181.21192           180.82613           175.06509           167.83275           161.03935           155.46846           151.24655           148.17098            30.61748            43.72077            65.26044           101.84741           145.36048           176.17513           186.90414           184.60147           177.23050           168.98862           161.62248           155.74030           151.35495           148.19741            36.25552            48.72075            71.38991           110.14184           154.87274           184.43038           192.42727           187.62601           178.64355           169.54779           161.78597           155.73648           151.28951           148.11781            23.68136            42.68337            73.78287           117.70256           162.59254           189.53464           194.99249           188.54613           178.70135           169.25414           161.41609           155.40664           151.02676           147.91962            24.33647            43.91359            75.21168           117.95379           161.01974           187.14823           192.77751           186.71433           177.17829           168.03800           160.50397           154.75367           150.57611           147.61068            41.21293            52.87109            74.33264           110.11989           151.15735           178.98346           187.12169           182.86591           174.47288           166.10615           159.15388           153.84095           149.96951           147.21078            34.00751            46.40155            67.60390           102.65747           143.45878           172.14181           181.69196           178.74584           171.38011           163.84970           157.57379           152.77557           149.26981           146.75457            31.63136            47.54326            72.09553           107.50631           145.67409           171.25625           179.09002           175.72504           168.64012           161.66415           155.98020           151.68275           148.54924           146.28831            29.72689            49.82361            77.12651           113.32473           150.32913           173.39133           178.80517           174.05843           166.59227           159.81440           154.55021           150.67840           147.87879           145.85504            46.69719            59.73586            79.59518           112.99614           150.92901           174.70864           179.23768           173.30601           165.22952           158.41607           153.40520           149.85146           147.32530           145.49506            31.12335            49.26461            71.22818           106.63925           147.95950           174.40360           179.46311           172.98961           164.43724           157.49914           152.61080           149.26494           146.93076           145.24309            39.18338            54.20165            72.59933           105.58111           146.23974           173.46355           179.22999           172.83900           164.10797           157.06502           152.20666           148.96070           146.73012           145.12211            33.94788            49.92037            69.19427           102.02520           142.48982           170.76682           178.13061           172.67810           164.19039           157.12415           152.22290           148.96964           146.74933           145.14578            33.47733            48.94442            67.19189            98.01074           137.04649           166.41781           176.27025           172.57660           164.72183           157.69294           152.67090           149.30023           146.99019           145.32297            27.58513            43.44505            61.07229            90.39010           129.05817           160.76747           174.08241           172.73428           165.75719           158.78289           153.54843           149.94586           147.45016           145.64910            34.56352            45.82805            58.19433            83.81373           121.46513           155.41213           172.21926           173.32715           167.29619           160.35699           154.82174           150.88272           148.11507           146.11337            33.17756            44.21443            55.17849            79.11227           115.99361           151.30960           170.86021           174.21767           169.17670           162.28519           156.40340           152.05711           148.94767           146.69305            30.29471            42.48373            53.96236            77.14658           112.71483           147.98081           169.36459           174.89399           171.05110           164.35920           158.16775           153.38971           149.89958           147.35790            49.24685            51.96093            59.11651            79.08915           110.98265           144.23086           166.70543           174.66066           172.49945           166.33351           159.97098           154.79396           150.91883           148.07612            23.46962            37.17216            54.72741            77.81956           107.40462           138.42471           162.04143           172.98851           173.18440           167.99192           161.67900           156.19005           151.95446           148.81285            35.56265            44.87215            59.51790            78.06278           102.16999           130.33021           155.30511           169.80219           172.97166           169.21366           163.20027           157.51010           152.95810           149.53855            44.96067            47.98936            56.39034            70.37968            91.77433           119.57438           146.96916           165.42790           171.96616           169.99044           164.49451           158.71325           153.90127           150.22990            41.71740            42.86505            48.40204            60.70434            81.35094           109.39320           138.77929           160.68591           170.48082           170.40944           165.56684           159.78576           154.76473           150.87194            48.40205            47.79689            50.60143            59.80793            77.31048           103.05071           132.29153           156.31031           168.82948           170.57700           166.43941           160.72204           155.53690           151.45366            65.80028            61.50900            60.21014            64.64292            77.32827            99.29364           127.11425           152.32079           167.11356           170.56048           167.13876           161.52365           156.21351           151.96788            66.04496            62.54296            61.54089            64.74854            75.13318            94.85719           121.89796           148.36069           165.32001           170.39935           167.68670           162.19696           156.79347           152.41297            90.80881            70.90681            63.81383            63.82303            71.66731            89.66821           116.51995           144.49254           163.58632           170.18527           168.12536           162.76075           157.28173           152.78655            83.80846            69.56438            65.70035            64.06320            68.92804            85.05732           111.84558           141.28487           162.22907           170.07114           168.51597           163.23362           157.68247           153.08862           119.29719            80.98844            71.78916            65.88182            67.33330            81.92296           108.82309           139.41271           161.60825           170.20433           168.90738           163.62388           157.99306           153.31467            68.97669            54.68778            61.14330            62.04010            65.19180            80.37295           107.95120           139.25052           161.89670           170.63206           169.29709           163.92165           158.20127           153.45438            58.710