# vtk DataFile Version 3.0
Output from R2
ASCII
DATASET UNSTRUCTURED_GRID
POINTS       2940 double
     0.00000     0.00000   0.
     0.00000    -0.06250   0.
     0.00000    -0.14060   0.
     0.00000    -0.23830   0.
     0.00000    -0.36040   0.
     0.00000    -0.51290   0.
     0.00000    -0.70370   0.
     0.00000    -0.94210   0.
     0.00000    -1.24010   0.
     0.00000    -1.61260   0.
     0.00000    -2.07830   0.
     0.00000    -2.66040   0.
     0.00000    -3.38800   0.
     0.00000    -4.29750   0.
     0.00000    -5.43430   0.
     0.25000     0.00000   0.
     0.25000    -0.06250   0.
     0.25000    -0.14060   0.
     0.25000    -0.23830   0.
     0.25000    -0.36040   0.
     0.25000    -0.51290   0.
     0.25000    -0.70370   0.
     0.25000    -0.94210   0.
     0.25000    -1.24010   0.
     0.25000    -1.61260   0.
     0.25000    -2.07830   0.
     0.25000    -2.66040   0.
     0.25000    -3.38800   0.
     0.25000    -4.29750   0.
     0.25000    -5.43430   0.
     0.50000     0.00000   0.
     0.50000    -0.06250   0.
     0.50000    -0.14060   0.
     0.50000    -0.23830   0.
     0.50000    -0.36040   0.
     0.50000    -0.51290   0.
     0.50000    -0.70370   0.
     0.50000    -0.94210   0.
     0.50000    -1.24010   0.
     0.50000    -1.61260   0.
     0.50000    -2.07830   0.
     0.50000    -2.66040   0.
     0.50000    -3.38800   0.
     0.50000    -4.29750   0.
     0.50000    -5.43430   0.
     0.75000     0.00000   0.
     0.75000    -0.06250   0.
     0.75000    -0.14060   0.
     0.75000    -0.23830   0.
     0.75000    -0.36040   0.
     0.75000    -0.51290   0.
     0.75000    -0.70370   0.
     0.75000    -0.94210   0.
     0.75000    -1.24010   0.
     0.75000    -1.61260   0.
     0.75000    -2.07830   0.
     0.75000    -2.66040   0.
     0.75000    -3.38800   0.
     0.75000    -4.29750   0.
     0.75000    -5.43430   0.
     1.00000     0.00000   0.
     1.00000    -0.06250   0.
     1.00000    -0.14060   0.
     1.00000    -0.23830   0.
     1.00000    -0.36040   0.
     1.00000    -0.51290   0.
     1.00000    -0.70370   0.
     1.00000    -0.94210   0.
     1.00000    -1.24010   0.
     1.00000    -1.61260   0.
     1.00000    -2.07830   0.
     1.00000    -2.66040   0.
     1.00000    -3.38800   0.
     1.00000    -4.29750   0.
     1.00000    -5.43430   0.
     1.25000     0.00000   0.
     1.25000    -0.06250   0.
     1.25000    -0.14060   0.
     1.25000    -0.23830   0.
     1.25000    -0.36040   0.
     1.25000    -0.51290   0.
     1.25000    -0.70370   0.
     1.25000    -0.94210   0.
     1.25000    -1.24010   0.
     1.25000    -1.61260   0.
     1.25000    -2.07830   0.
     1.25000    -2.66040   0.
     1.25000    -3.38800   0.
     1.25000    -4.29750   0.
     1.25000    -5.43430   0.
     1.50000     0.00000   0.
     1.50000    -0.06250   0.
     1.50000    -0.14060   0.
     1.50000    -0.23830   0.
     1.50000    -0.36040   0.
     1.50000    -0.51290   0.
     1.50000    -0.70370   0.
     1.50000    -0.94210   0.
     1.50000    -1.24010   0.
     1.50000    -1.61260   0.
     1.50000    -2.07830   0.
     1.50000    -2.66040   0.
     1.50000    -3.38800   0.
     1.50000    -4.29750   0.
     1.50000    -5.43430   0.
     1.75000     0.00000   0.
     1.75000    -0.06250   0.
     1.75000    -0.14060   0.
     1.75000    -0.23830   0.
     1.75000    -0.36040   0.
     1.75000    -0.51290   0.
     1.75000    -0.70370   0.
     1.75000    -0.94210   0.
     1.75000    -1.24010   0.
     1.75000    -1.61260   0.
     1.75000    -2.07830   0.
     1.75000    -2.66040   0.
     1.75000    -3.38800   0.
     1.75000    -4.29750   0.
     1.75000    -5.43430   0.
     2.00000     0.00000   0.
     2.00000    -0.06250   0.
     2.00000    -0.14060   0.
     2.00000    -0.23830   0.
     2.00000    -0.36040   0.
     2.00000    -0.51290   0.
     2.00000    -0.70370   0.
     2.00000    -0.94210   0.
     2.00000    -1.24010   0.
     2.00000    -1.61260   0.
     2.00000    -2.07830   0.
     2.00000    -2.66040   0.
     2.00000    -3.38800   0.
     2.00000    -4.29750   0.
     2.00000    -5.43430   0.
     2.25000     0.00000   0.
     2.25000    -0.06250   0.
     2.25000    -0.14060   0.
     2.25000    -0.23830   0.
     2.25000    -0.36040   0.
     2.25000    -0.51290   0.
     2.25000    -0.70370   0.
     2.25000    -0.94210   0.
     2.25000    -1.24010   0.
     2.25000    -1.61260   0.
     2.25000    -2.07830   0.
     2.25000    -2.66040   0.
     2.25000    -3.38800   0.
     2.25000    -4.29750   0.
     2.25000    -5.43430   0.
     2.50000     0.00000   0.
     2.50000    -0.06250   0.
     2.50000    -0.14060   0.
     2.50000    -0.23830   0.
     2.50000    -0.36040   0.
     2.50000    -0.51290   0.
     2.50000    -0.70370   0.
     2.50000    -0.94210   0.
     2.50000    -1.24010   0.
     2.50000    -1.61260   0.
     2.50000    -2.07830   0.
     2.50000    -2.66040   0.
     2.50000    -3.38800   0.
     2.50000    -4.29750   0.
     2.50000    -5.43430   0.
     2.75000     0.00000   0.
     2.75000    -0.06250   0.
     2.75000    -0.14060   0.
     2.75000    -0.23830   0.
     2.75000    -0.36040   0.
     2.75000    -0.51290   0.
     2.75000    -0.70370   0.
     2.75000    -0.94210   0.
     2.75000    -1.24010   0.
     2.75000    -1.61260   0.
     2.75000    -2.07830   0.
     2.75000    -2.66040   0.
     2.75000    -3.38800   0.
     2.75000    -4.29750   0.
     2.75000    -5.43430   0.
     3.00000     0.00000   0.
     3.00000    -0.06250   0.
     3.00000    -0.14060   0.
     3.00000    -0.23830   0.
     3.00000    -0.36040   0.
     3.00000    -0.51290   0.
     3.00000    -0.70370   0.
     3.00000    -0.94210   0.
     3.00000    -1.24010   0.
     3.00000    -1.61260   0.
     3.00000    -2.07830   0.
     3.00000    -2.66040   0.
     3.00000    -3.38800   0.
     3.00000    -4.29750   0.
     3.00000    -5.43430   0.
     3.25000     0.00000   0.
     3.25000    -0.06250   0.
     3.25000    -0.14060   0.
     3.25000    -0.23830   0.
     3.25000    -0.36040   0.
     3.25000    -0.51290   0.
     3.25000    -0.70370   0.
     3.25000    -0.94210   0.
     3.25000    -1.24010   0.
     3.25000    -1.61260   0.
     3.25000    -2.07830   0.
     3.25000    -2.66040   0.
     3.25000    -3.38800   0.
     3.25000    -4.29750   0.
     3.25000    -5.43430   0.
     3.50000     0.00000   0.
     3.50000    -0.06250   0.
     3.50000    -0.14060   0.
     3.50000    -0.23830   0.
     3.50000    -0.36040   0.
     3.50000    -0.51290   0.
     3.50000    -0.70370   0.
     3.50000    -0.94210   0.
     3.50000    -1.24010   0.
     3.50000    -1.61260   0.
     3.50000    -2.07830   0.
     3.50000    -2.66040   0.
     3.50000    -3.38800   0.
     3.50000    -4.29750   0.
     3.50000    -5.43430   0.
     3.75000     0.00000   0.
     3.75000    -0.06250   0.
     3.75000    -0.14060   0.
     3.75000    -0.23830   0.
     3.75000    -0.36040   0.
     3.75000    -0.51290   0.
     3.75000    -0.70370   0.
     3.75000    -0.94210   0.
     3.75000    -1.24010   0.
     3.75000    -1.61260   0.
     3.75000    -2.07830   0.
     3.75000    -2.66040   0.
     3.75000    -3.38800   0.
     3.75000    -4.29750   0.
     3.75000    -5.43430   0.
     4.00000     0.00000   0.
     4.00000    -0.06250   0.
     4.00000    -0.14060   0.
     4.00000    -0.23830   0.
     4.00000    -0.36040   0.
     4.00000    -0.51290   0.
     4.00000    -0.70370   0.
     4.00000    -0.94210   0.
     4.00000    -1.24010   0.
     4.00000    -1.61260   0.
     4.00000    -2.07830   0.
     4.00000    -2.66040   0.
     4.00000    -3.38800   0.
     4.00000    -4.29750   0.
     4.00000    -5.43430   0.
     4.25000     0.00000   0.
     4.25000    -0.06250   0.
     4.25000    -0.14060   0.
     4.25000    -0.23830   0.
     4.25000    -0.36040   0.
     4.25000    -0.51290   0.
     4.25000    -0.70370   0.
     4.25000    -0.94210   0.
     4.25000    -1.24010   0.
     4.25000    -1.61260   0.
     4.25000    -2.07830   0.
     4.25000    -2.66040   0.
     4.25000    -3.38800   0.
     4.25000    -4.29750   0.
     4.25000    -5.43430   0.
     4.50000     0.00000   0.
     4.50000    -0.06250   0.
     4.50000    -0.14060   0.
     4.50000    -0.23830   0.
     4.50000    -0.36040   0.
     4.50000    -0.51290   0.
     4.50000    -0.70370   0.
     4.50000    -0.94210   0.
     4.50000    -1.24010   0.
     4.50000    -1.61260   0.
     4.50000    -2.07830   0.
     4.50000    -2.66040   0.
     4.50000    -3.38800   0.
     4.50000    -4.29750   0.
     4.50000    -5.43430   0.
     4.75000     0.00000   0.
     4.75000    -0.06250   0.
     4.75000    -0.14060   0.
     4.75000    -0.23830   0.
     4.75000    -0.36040   0.
     4.75000    -0.51290   0.
     4.75000    -0.70370   0.
     4.75000    -0.94210   0.
     4.75000    -1.24010   0.
     4.75000    -1.61260   0.
     4.75000    -2.07830   0.
     4.75000    -2.66040   0.
     4.75000    -3.38800   0.
     4.75000    -4.29750   0.
     4.75000    -5.43430   0.
     5.00000     0.00000   0.
     5.00000    -0.06250   0.
     5.00000    -0.14060   0.
     5.00000    -0.23830   0.
     5.00000    -0.36040   0.
     5.00000    -0.51290   0.
     5.00000    -0.70370   0.
     5.00000    -0.94210   0.
     5.00000    -1.24010   0.
     5.00000    -1.61260   0.
     5.00000    -2.07830   0.
     5.00000    -2.66040   0.
     5.00000    -3.38800   0.
     5.00000    -4.29750   0.
     5.00000    -5.43430   0.
     5.25000     0.00000   0.
     5.25000    -0.06250   0.
     5.25000    -0.14060   0.
     5.25000    -0.23830   0.
[...]
POINT_DATA      2940
CELL_DATA      2730
SCALARS Resistivity(Ohm-m) double 1
LOOKUP_TABLE default
            65.15907            70.45571            76.31547            84.08065            94.41513           106.25480           117.93597           128.16641           136.45952           142.97505           148.10229           152.16388           155.36388           157.84668            38.28701            52.61850            61.74644            72.66902            87.94891           105.51226           121.97476           134.89855           143.82154           149.69069           153.69322           156.61687           158.83705           160.52553            63.24609            59.79450            55.27533            61.24627            78.04744           101.58401           125.16438           142.86913           153.19227           158.24281           160.64399           161.98198           162.89539           163.56987            45.14668            51.67955            48.49036            53.23533            70.03909            97.54359           128.32296           152.04176           164.40822           168.47463           168.81916           168.15494           167.46299           166.92765            61.57567            59.15591            48.32379            48.89368            64.42143            94.62939           132.02154           162.18773           177.00573           179.98418           177.92428           174.93177           172.40328           170.51199           129.72460            77.50567            53.16629            48.52871            62.20729            93.73354           136.09619           172.22423           189.85204           191.97980           187.47222           182.01848           177.53845           174.21324            36.12734            41.73200            52.28435            54.83016            66.22681            95.39145           139.01627           179.78152           201.02955           203.31203           196.84061           189.07263           182.67243           177.91341            43.24851            48.56458            57.65029            58.38019            66.70778            92.72169           136.05088           181.46366           208.37707           212.82860           205.44756           195.78933           187.62984           181.50555            81.99371            49.57734            41.04463            43.31869            55.40195            81.72708           125.46784           176.29795           211.17282           220.06236           213.01454           201.99442           192.29686           184.90927            54.25162            50.63955            44.66560            44.11462            51.77674            72.87228           113.72607           168.27799           211.31214           225.68322           219.71740           207.69462           196.62994           188.07806            47.50115            56.95209            55.92983            52.09219            53.35614            68.47947           105.97912           162.63334           212.06834           231.10727           226.02507           213.00507           200.63078           190.98002            45.40405            41.45843            43.97784            47.84813            52.75408            67.92667           104.85486           163.05498           216.14587           237.56101           232.32697           218.00138           204.28126           193.57926            29.56628            39.81964            52.71192            58.88758            62.09282            75.43311           111.71643           170.31463           224.07388           245.18862           238.55396           222.57357           207.49139           195.80861            31.41239            48.71815            60.21009            64.20186            67.99593            82.78079           120.69536           180.25245           233.38862           252.72630           244.08053           226.40605           210.09399           197.57852            55.97369            45.48087            38.99249            43.55969            56.44553            80.09851           124.15060           186.98694           240.36632           258.25489           248.00720           229.07975           211.88760           198.78561            58.03022            58.96687            48.14271            46.28218            55.55206            78.95570           124.72104           189.30043           243.06476           260.44090           249.63099           230.25262           212.70419           199.34660            29.56483            52.13925            59.71086            60.67621            65.24599            83.78225           126.47676           189.13725           241.76994           259.03921           248.71221           229.77179           212.46335           199.22099            42.91561            45.27940            53.92430            63.98761            72.34349            89.72415           129.22674           187.81280           237.50377           254.49827           245.40637           227.69118           211.18420           198.41983            21.84459            35.36101            55.70060            70.64979            78.72340            94.67674           131.52280           185.36997           230.98070           247.45644           240.08785           224.21008           208.97611           197.00498            36.37202            45.71621            66.12828            76.53770            80.84732            96.15828           131.52613           180.97575           222.42649           238.50563           233.23796           219.62206           206.00849           195.07732            22.25304            33.13248            59.15261            74.13890            80.56710            96.31178           129.52399           174.36686           212.15409           228.28425           225.39689           214.28265           202.49780           192.76798            24.31602            45.86631            74.30007            86.45993            88.44402            99.04507           126.68889           166.17430           200.97932           217.62003           217.18519           208.58918           198.68534           190.22143            50.27287            60.52456            75.90489            86.41639            90.28739            98.98447           122.40329           157.69839           190.35274           207.56711           209.27398           202.94832           194.81419           187.58432            25.07325            44.34783            62.69621            76.97556            85.96140            96.88133           119.11048           151.61401           182.14555           199.21233           202.28474           197.72314           191.09862           184.98677            65.41736            77.66706            82.24953            84.93927            89.88646           100.42871           121.19365           150.44640           177.71296           193.26777           196.61805           193.15312           187.69064           182.52559            31.14231            43.61821            56.25021            72.83809            89.93561           106.48619           127.64709           153.78203           176.90760           189.70237           192.31298           189.30624           184.65464           180.25435            51.19018            50.35201            56.87283            71.96844            89.94070           109.95330           134.04752           159.18427           178.40690           187.84170           189.08141           186.08691           181.97264           178.18332            59.17502            74.09828            76.90711            77.23083            86.32674           109.09227           139.30536           165.22774           180.77611           186.75292           186.46441           183.30226           179.57770           176.29649            73.01804            72.95430            64.95694            65.68318            82.83557           114.95290           149.05451           171.96700           182.63618           185.46337           183.98718           180.75052           177.39265           174.56895            51.46527            54.71990            57.32118            74.51135           105.26688           138.72915           163.10019           176.13406           181.85240           183.05134           181.30135           178.30796           175.37469           172.98905            42.39879            61.09928            78.34921           104.72461           133.70837           153.30058           163.62867           170.94029           176.72728           179.25228           178.42135           176.01478           173.55299           171.57352            45.87355            56.03410            71.14759            93.24744           116.31505           133.23921           145.84448           158.41380           169.44486           175.26938           175.89604           174.10142           172.02043           170.35672            49.05783            60.70714            73.90082            90.49553           107.84052           121.70455           134.85159           150.57665           165.21492           173.20253           174.52175           172.86078           170.88025           169.37196            42.15987            68.74065            90.96010           113.79318           130.56783           136.03271           141.15737           153.24295           166.91384           174.24495           174.71264           172.41173           170.15145           168.61044            35.49927            52.41709            70.20814           105.09524           139.16887           150.69510           153.51597           162.30116           173.11631           177.79374           176.14626           172.56722           169.72551           168.00603            40.02867            53.83045            68.59917           101.62489           138.38951           155.76390           162.49530           171.76573           180.48217           182.10426           177.94915           172.89614           169.38360           167.44399            19.04824            50.32360            83.09940           120.82472           151.29673           162.99311           169.01294           178.53409           185.95802           185.26922           179.12323           172.89920           168.87710           166.79624            32.64516            57.54546            93.30920           139.30663           168.10587           170.88452           171.74233           180.17382           187.31609           185.88143           178.91993           172.20068           168.01048           165.96019            22.19390            49.22776            88.84036           138.30678           165.57412           164.86293           165.00932           174.90538           183.86040           183.56718           177.11690           170.66406           166.70267           164.88460            31.68194            58.91941            93.16816           130.17393           148.82292           149.11066           153.07321           166.09633           177.58236           179.25172           174.08436           168.42448           164.99902           163.58255            25.71491            53.78825            89.43601           126.76598           145.98137           146.19123           148.88167           160.60105           171.94944           174.54530           170.51958           165.77485           163.02108           162.10552            21.16224            49.94246            90.80214           141.21439           169.96280           165.31554           157.86758           161.72527           169.02109           170.61246           167.01036           162.99753           160.90551           160.52244            20.15021            47.22614            87.74958           151.76427           198.52663           192.93344           173.58170           167.12155           168.39152           167.64175           163.78631           160.25303           158.75183           158.89172            28.31249            45.68770            84.19840           157.29983           217.33038           213.33919           186.62061           172.45298           168.42522           165.16591           160.77827           157.57389           156.60709           157.25412            15.77999            47.99217           105.44542           184.57937           235.10297           222.86796           192.43583           174.94192           167.73195           162.60757           157.80450           154.92982           154.49125           155.64018            18.92962            58.07332           113.39909           179.66466           221.32471           213.52262           189.36837           173.68252           165.62475           159.60509           154.73445           152.30183           152.42145           154.07696            36.02789            47.87706            70.31843           121.45375           175.53778           190.74072           180.42991           169.45723           162.13113           156.11118           151.57079           149.72184           150.44129           152.60523            27.62735            42.26167            66.87417           114.94432           163.87942           179.40725           172.65830           164.15991           157.85609           152.39274           148.47261           147.29816           148.62545           151.27808            23.24064            58.99233           106.07664           153.44265           181.17125           179.52830           167.69681           159.19234           153.68711           148.95327           145.72166           145.19567           147.07635           150.16083            20.99306            55.16672           101.74720           153.37071           183.72046           179.57058           165.16676           156.00760           150.74196           146.42584           143.65817           143.60397           145.90539           149.32441            43.59292            55.53907            82.37919           137.15970           183.11971           184.18637           167.53840           156.27770           150.04222           145.36249           142.57255           142.68512           145.20857           148.82610            19.41854            50.37367            85.61287           143.68783           192.83131           193.44155           173.84587           159.92423           151.82167           145.97520           142.60569           142.53026           145.04679           148.70677            30.92456            60.34065            95.56598           148.59114           193.51449           196.46775           179.26348           165.13241           155.50779           148.11808           143.74025           143.15450           145.43811           148.98088            23.39967            44.07634            76.76232           130.02208           178.53096           190.80373           181.54649           170.43455           160.40912           151.50682           145.86331           144.51339           146.36455           149.64021            27.43635            49.16328            82.12477           128.68905           168.73101           183.07853           181.70506           175.58029           166.20468           155.93003           148.85173           146.53619           147.78328           150.65829            21.95397            46.76931            75.53656           111.59323           146.81376           169.35458           180.05873           181.06151           172.97887           161.29969           152.59974           149.14111           149.63686           151.99249            35.33965            43.83241            55.44893            82.59287           121.47265           157.30903           180.97954           188.55745           181.08550           167.55709           156.98914           152.22671           151.84945           153.59096            27.86883            45.81207            59.13151            84.24802           122.83175           161.82827           189.63806           199.01981           190.32758           174.41033           161.81268           155.65906           154.33012           155.38876            24.47260            46.35863            60.99294            90.17142           133.15895           172.86736           199.89246           208.88346           199.00716           181.14286           166.75588           159.27140           156.97588           157.31866            53.50054            49.53429            54.86169            84.77311           129.20883           168.69769           198.06069           211.80981           204.78655           186.96914           171.52033           162.91615           159.69416           159.31458            19.34712            40.19748            60.83620            84.04663           111.56235           143.68077           180.01420           206.02855           207.10895           191.72115           176.01743           166.51327           162.41325           161.31746            42.45270            53.95232            65.52182            71.92988            85.07867           114.41060           158.89167           197.78037           208.14841           196.01990           180.36985           170.03936           165.07599           163.27134            53.10425            51.53481            56.15836            62.22259            75.54862           104.12055           149.92316           194.25229           210.32769           200.46969           184.64481           173.43517           167.60758           165.11501            39.89498            45.08975            52.54132            65.29852            81.84530           107.58810           149.48860           193.92484           212.94675           204.63631           188.56133           176.51744           169.89235           166.77448            39.38929            45.62407            52.74838            64.26829            78.57130           101.67050           142.36697           189.29711           212.88092           207.22630           191.54240           179.01115           171.78802           168.17181            64.09896            75.26385            74.03609            68.51956            69.97251            87.61179           127.78679           178.74348           208.70404           207.34234           193.11109           180.67664           173.17452           169.24438            55.25876            68.00433            69.36804            65.40227            65.21449            79.16573           115.86351           167.10171           201.79654           205.09833           193.14927           181.42065           174.00086           169.96588            75.03630            75.36732            73.49855            72.95043            71.01483            78.92111           109.20890           157.16974           193.88334           201.16907           191.87614           181.31769           174.29885           170.35339            54.58231            70.55067            81.22483            80.17816            72.17191            75.41185           102.26265           148.17115           185.97138           196.40471           189.73327           180.58334           174.17638           170.46229           116.68556            85.05538            84.37571            72.82425            61.25414            66.43357            95.04797           141.26320           179.55270           191.88875           187.31849           179.51991           173.78899           170.37708            65.56868            53.60901            70.88293            65.97107            56.65641            64.31735            94.49047           139.96377           176.50313           188.71343           185.23053           178.43984           173.30090           170.18549            59.845