# vtk DataFile Version 3.0
Output from R2
ASCII
DATASET UNSTRUCTURED_GRID
POINTS       2940 double
     0.00000     0.00000   0.
     0.00000    -0.06250   0.
     0.00000    -0.14060   0.
     0.00000    -0.23830   0.
     0.00000    -0.36040   0.
     0.00000    -0.51290   0.
     0.00000    -0.70370   0.
     0.00000    -0.94210   0.
     0.00000    -1.24010   0.
     0.00000    -1.61260   0.
     0.00000    -2.07830   0.
     0.00000    -2.66040   0.
     0.00000    -3.38800   0.
     0.00000    -4.29750   0.
     0.00000    -5.43430   0.
     0.25000     0.00000   0.
     0.25000    -0.06250   0.
     0.25000    -0.14060   0.
     0.25000    -0.23830   0.
     0.25000    -0.36040   0.
     0.25000    -0.51290   0.
     0.25000    -0.70370   0.
     0.25000    -0.94210   0.
     0.25000    -1.24010   0.
     0.25000    -1.61260   0.
     0.25000    -2.07830   0.
     0.25000    -2.66040   0.
     0.25000    -3.38800   0.
     0.25000    -4.29750   0.
     0.25000    -5.43430   0.
     0.50000     0.00000   0.
     0.50000    -0.06250   0.
     0.50000    -0.14060   0.
     0.50000    -0.23830   0.
     0.50000    -0.36040   0.
     0.50000    -0.51290   0.
     0.50000    -0.70370   0.
     0.50000    -0.94210   0.
     0.50000    -1.24010   0.
     0.50000    -1.61260   0.
     0.50000    -2.07830   0.
     0.50000    -2.66040   0.
     0.50000    -3.38800   0.
     0.50000    -4.29750   0.
     0.50000    -5.43430   0.
     0.75000     0.00000   0.
     0.75000    -0.06250   0.
     0.75000    -0.14060   0.
     0.75000    -0.23830   0.
     0.75000    -0.36040   0.
     0.75000    -0.51290   0.
     0.75000    -0.70370   0.
     0.75000    -0.94210   0.
     0.75000    -1.24010   0.
     0.75000    -1.61260   0.
     0.75000    -2.07830   0.
     0.75000    -2.66040   0.
     0.75000    -3.38800   0.
     0.75000    -4.29750   0.
     0.75000    -5.43430   0.
     1.00000     0.00000   0.
     1.00000    -0.06250   0.
     1.00000    -0.14060   0.
     1.00000    -0.23830   0.
     1.00000    -0.36040   0.
     1.00000    -0.51290   0.
     1.00000    -0.70370   0.
     1.00000    -0.94210   0.
     1.00000    -1.24010   0.
     1.00000    -1.61260   0.
     1.00000    -2.07830   0.
     1.00000    -2.66040   0.
     1.00000    -3.38800   0.
     1.00000    -4.29750   0.
     1.00000    -5.43430   0.
     1.25000     0.00000   0.
     1.25000    -0.06250   0.
     1.25000    -0.14060   0.
     1.25000    -0.23830   0.
     1.25000    -0.36040   0.
     1.25000    -0.51290   0.
     1.25000    -0.70370   0.
     1.25000    -0.94210   0.
     1.25000    -1.24010   0.
     1.25000    -1.61260   0.
     1.25000    -2.07830   0.
     1.25000    -2.66040   0.
     1.25000    -3.38800   0.
     1.25000    -4.29750   0.
     1.25000    -5.43430   0.
     1.50000     0.00000   0.
     1.50000    -0.06250   0.
     1.50000    -0.14060   0.
     1.50000    -0.23830   0.
     1.50000    -0.36040   0.
     1.50000    -0.51290   0.
     1.50000    -0.70370   0.
     1.50000    -0.94210   0.
     1.50000    -1.24010   0.
     1.50000    -1.61260   0.
     1.50000    -2.07830   0.
     1.50000    -2.66040   0.
     1.50000    -3.38800   0.
     1.50000    -4.29750   0.
     1.50000    -5.43430   0.
     1.75000     0.00000   0.
     1.75000    -0.06250   0.
     1.75000    -0.14060   0.
     1.75000    -0.23830   0.
     1.75000    -0.36040   0.
     1.75000    -0.51290   0.
     1.75000    -0.70370   0.
     1.75000    -0.94210   0.
     1.75000    -1.24010   0.
     1.75000    -1.61260   0.
     1.75000    -2.07830   0.
     1.75000    -2.66040   0.
     1.75000    -3.38800   0.
     1.75000    -4.29750   0.
     1.75000    -5.43430   0.
     2.00000     0.00000   0.
     2.00000    -0.06250   0.
     2.00000    -0.14060   0.
     2.00000    -0.23830   0.
     2.00000    -0.36040   0.
     2.00000    -0.51290   0.
     2.00000    -0.70370   0.
     2.00000    -0.94210   0.
     2.00000    -1.24010   0.
     2.00000    -1.61260   0.
     2.00000    -2.07830   0.
     2.00000    -2.66040   0.
     2.00000    -3.38800   0.
     2.00000    -4.29750   0.
     2.00000    -5.43430   0.
     2.25000     0.00000   0.
     2.25000    -0.06250   0.
     2.25000    -0.14060   0.
     2.25000    -0.23830   0.
     2.25000    -0.36040   0.
     2.25000    -0.51290   0.
     2.25000    -0.70370   0.
     2.25000    -0.94210   0.
     2.25000    -1.24010   0.
     2.25000    -1.61260   0.
     2.25000    -2.07830   0.
     2.25000    -2.66040   0.
     2.25000    -3.38800   0.
     2.25000    -4.29750   0.
     2.25000    -5.43430   0.
     2.50000     0.00000   0.
     2.50000    -0.06250   0.
     2.50000    -0.14060   0.
     2.50000    -0.23830   0.
     2.50000    -0.36040   0.
     2.50000    -0.51290   0.
     2.50000    -0.70370   0.
     2.50000    -0.94210   0.
     2.50000    -1.24010   0.
     2.50000    -1.61260   0.
     2.50000    -2.07830   0.
     2.50000    -2.66040   0.
     2.50000    -3.38800   0.
     2.50000    -4.29750   0.
     2.50000    -5.43430   0.
     2.75000     0.00000   0.
     2.75000    -0.06250   0.
     2.75000    -0.14060   0.
     2.75000    -0.23830   0.
     2.75000    -0.36040   0.
     2.75000    -0.51290   0.
     2.75000    -0.70370   0.
     2.75000    -0.94210   0.
     2.75000    -1.24010   0.
     2.75000    -1.61260   0.
     2.75000    -2.07830   0.
     2.75000    -2.66040   0.
     2.75000    -3.38800   0.
     2.75000    -4.29750   0.
     2.75000    -5.43430   0.
     3.00000     0.00000   0.
     3.00000    -0.06250   0.
     3.00000    -0.14060   0.
     3.00000    -0.23830   0.
     3.00000    -0.36040   0.
     3.00000    -0.51290   0.
     3.00000    -0.70370   0.
     3.00000    -0.94210   0.
     3.00000    -1.24010   0.
     3.00000    -1.61260   0.
     3.00000    -2.07830   0.
     3.00000    -2.66040   0.
     3.00000    -3.38800   0.
     3.00000    -4.29750   0.
     3.00000    -5.43430   0.
     3.25000     0.00000   0.
     3.25000    -0.06250   0.
     3.25000    -0.14060   0.
     3.25000    -0.23830   0.
     3.25000    -0.36040   0.
     3.25000    -0.51290   0.
     3.25000    -0.70370   0.
     3.25000    -0.94210   0.
     3.25000    -1.24010   0.
     3.25000    -1.61260   0.
     3.25000    -2.07830   0.
     3.25000    -2.66040   0.
     3.25000    -3.38800   0.
     3.25000    -4.29750   0.
     3.25000    -5.43430   0.
     3.50000     0.00000   0.
     3.50000    -0.06250   0.
     3.50000    -0.14060   0.
     3.50000    -0.23830   0.
     3.50000    -0.36040   0.
     3.50000    -0.51290   0.
     3.50000    -0.70370   0.
     3.50000    -0.94210   0.
     3.50000    -1.24010   0.
     3.50000    -1.61260   0.
     3.50000    -2.07830   0.
     3.50000    -2.66040   0.
     3.50000    -3.38800   0.
     3.50000    -4.29750   0.
     3.50000    -5.43430   0.
     3.75000     0.00000   0.
     3.75000    -0.06250   0.
     3.75000    -0.14060   0.
     3.75000    -0.23830   0.
     3.75000    -0.36040   0.
     3.75000    -0.51290   0.
     3.75000    -0.70370   0.
     3.75000    -0.94210   0.
     3.75000    -1.24010   0.
     3.75000    -1.61260   0.
     3.75000    -2.07830   0.
     3.75000    -2.66040   0.
     3.75000    -3.38800   0.
     3.75000    -4.29750   0.
     3.75000    -5.43430   0.
     4.00000     0.00000   0.
     4.00000    -0.06250   0.
     4.00000    -0.14060   0.
     4.00000    -0.23830   0.
     4.00000    -0.36040   0.
     4.00000    -0.51290   0.
     4.00000    -0.70370   0.
     4.00000    -0.94210   0.
     4.00000    -1.24010   0.
     4.00000    -1.61260   0.
     4.00000    -2.07830   0.
     4.00000    -2.66040   0.
     4.00000    -3.38800   0.
     4.00000    -4.29750   0.
     4.00000    -5.43430   0.
     4.25000     0.00000   0.
     4.25000    -0.06250   0.
     4.25000    -0.14060   0.
     4.25000    -0.23830   0.
     4.25000    -0.36040   0.
     4.25000    -0.51290   0.
     4.25000    -0.70370   0.
     4.25000    -0.94210   0.
     4.25000    -1.24010   0.
     4.25000    -1.61260   0.
     4.25000    -2.07830   0.
     4.25000    -2.66040   0.
     4.25000    -3.38800   0.
     4.25000    -4.29750   0.
     4.25000    -5.43430   0.
     4.50000     0.00000   0.
     4.50000    -0.06250   0.
     4.50000    -0.14060   0.
     4.50000    -0.23830   0.
     4.50000    -0.36040   0.
     4.50000    -0.51290   0.
     4.50000    -0.70370   0.
     4.50000    -0.94210   0.
     4.50000    -1.24010   0.
     4.50000    -1.61260   0.
     4.50000    -2.07830   0.
     4.50000    -2.66040   0.
     4.50000    -3.38800   0.
     4.50000    -4.29750   0.
     4.50000    -5.43430   0.
     4.75000     0.00000   0.
     4.75000    -0.06250   0.
     4.75000    -0.14060   0.
     4.75000    -0.23830   0.
     4.75000    -0.36040   0.
     4.75000    -0.51290   0.
     4.75000    -0.70370   0.
     4.75000    -0.94210   0.
     4.75000    -1.24010   0.
     4.75000    -1.61260   0.
     4.75000    -2.07830   0.
     4.75000    -2.66040   0.
     4.75000    -3.38800   0.
     4.75000    -4.29750   0.
     4.75000    -5.43430   0.
     5.00000     0.00000   0.
     5.00000    -0.06250   0.
     5.00000    -0.14060   0.
     5.00000    -0.23830   0.
     5.00000    -0.36040   0.
     5.00000    -0.51290   0.
     5.00000    -0.70370   0.
     5.00000    -0.94210   0.
     5.00000    -1.24010   0.
     5.00000    -1.61260   0.
     5.00000    -2.07830   0.
     5.00000    -2.66040   0.
     5.00000    -3.38800   0.
     5.00000    -4.29750   0.
     5.00000    -5.43430   0.
     5.25000     0.00000   0.
     5.25000    -0.06250   0.
     5.25000    -0.14060   0.
     5.25000    -0.23830   0.
[...]
POINT_DATA      2940
CELL_DATA      2730
SCALARS Resistivity(Ohm-m) double 1
LOOKUP_TABLE default
            65.45072            70.79434            76.79098            84.72464            95.23713           107.21822           118.99714           129.27743           137.58417           144.09024           149.19728           153.23444           156.41467           158.88673            38.29164            52.78509            62.09044            73.16185            88.59450           106.27536           122.83257           135.82636           144.79741           150.69631           154.70885           157.62972           159.84436           161.53253            64.04468            60.44575            55.81665            61.73340            78.55121           102.12368           125.73619           143.49701           153.91120           159.05672           161.52585           162.90220           163.83834           164.53090            45.03160            51.58859            48.47008            53.33323            70.25926            97.82824           128.58468           152.30011           164.78121           169.02281           169.51752           168.95226           168.32361           167.83157            62.12767            59.11054            48.20531            48.87256            64.51163            94.77495           132.05449           162.08763           176.98952           180.21574           178.40147           175.58287           173.16795           171.35134           130.43684            77.67647            53.31981            48.69232            62.36862            93.89879           136.05977           171.86520           189.46587           191.87815           187.71030           182.51194           178.19871           174.98271            36.30426            41.72454            52.11148            54.75728            66.30250            95.57956           139.02425           179.30755           200.35936           202.90472           196.84315           189.40606           183.22748           178.61322            43.34625            48.43307            57.38635            58.22271            66.76990            92.99881           136.21611           181.05137           207.55290           212.17326           205.23652           195.97092           188.08200           182.13677            81.50413            49.40581            41.11308            43.43209            55.62763            82.17932           125.87658           176.07900           210.31574           219.22394           212.61524           202.03506           192.65263           185.47626            54.99914            50.33931            44.40239            44.02539            51.97580            73.44422           114.34461           168.25786           210.45890           224.69307           219.14965           207.60684           196.89892           188.58823            47.69472            56.39573            55.29155            51.72954            53.52790            69.14812           106.71038           162.67472           211.14412           229.95048           225.29965           212.80353           200.82607           191.44438            46.44678            41.53920            43.57691            47.52225            52.96796            68.60911           105.49682           162.91171           214.99699           236.19871           231.45108           217.70615           204.42190           194.01193            30.15984            39.53042            51.90735            58.25518            62.08834            75.86027           111.98021           169.74295           222.58139           243.61125           237.56031           222.21778           207.60072           196.22484            31.41040            48.48766            59.85752            63.87384            67.95947            82.90587           120.52356           179.23961           231.60895           251.02699           243.04895           226.04191           210.20487           197.99971            56.08075            45.60926            39.14507            43.72294            56.68625            80.27585           123.88768           185.88869           238.60630           256.64559           247.06337           228.78001           212.04177           199.23579            57.71454            58.32587            47.83059            46.36254            55.89712            79.30594           124.70522           188.55805           241.71258           259.17633           248.91782           230.09095           212.93964           199.84688            29.54808            51.88182            59.66879            60.72779            65.46241            84.15544           126.76697           188.97244           241.08545           258.31497           248.34405           229.81045           212.81409           199.78972            42.97054            45.24100            53.84625            63.69906            72.21222            89.99087           129.72604           188.18293           237.52027           254.37455           245.43184           227.96009           211.66873           199.06934            22.24912            35.06378            55.11030            70.12083            78.61708            95.02075           132.15462           186.07387           231.53165           247.85742           240.48464           224.70636           209.59692           197.73838            36.43176            45.41681            65.59291            76.43113            81.14034            96.55258           131.99735           181.66582           223.24933           239.28174           233.93813           220.31713           206.75434           195.88939            22.47673            33.12958            58.89744            74.17208            80.67032            96.19689           129.40944           174.71964           213.00376           229.27909           226.31565           215.13737           203.34942           193.64943            24.06827            45.99437            74.73115            86.79630            88.25142            98.32256           125.98143           166.17553           201.77826           218.73581           218.25606           209.56334           199.62074           191.16028            49.97476            61.07550            76.77448            87.05021            90.15845            98.16577           121.56627           157.60727           191.16447           208.77876           210.45286           204.01100           195.81410           188.56832            24.39259            44.37752            63.28687            77.90455            86.47503            96.59074           118.57393           151.68543           183.06511           200.51188           203.53909           198.84678           192.14460           186.00432            64.17409            77.76848            83.13789            86.24885            90.76907           100.42832           120.89426           150.71271           178.75061           194.62842           197.91162           194.30795           188.76247           183.56382            31.11548            43.62509            56.27637            72.87809            89.72409           105.92397           127.24826           154.14221           178.01175           191.07100           193.59828           190.45901           185.73026           181.29885            51.44932            50.62593            56.82074            71.47850            89.20816           109.22924           133.73546           159.62919           179.49234           189.13390           190.29786           187.19880           183.02880           179.22013            58.88941            74.20037            77.06266            77.47534            86.61654           109.22383           139.40419           165.71540           181.71832           187.86380           187.54537           184.33521           180.59293           177.31215            73.17204            72.69857            64.81978            66.07612            83.44709           115.22197           149.03452           172.18284           183.25844           186.29125           184.87713           181.67464           178.34948           175.55342            51.69026            54.85690            57.20727            74.23481           104.75155           137.89941           162.35271           175.89190           182.08989           183.55976           181.97591           179.10699           176.26419           173.93645            42.38809            61.41514            78.56341           104.50630           132.98067           152.37123           162.99328           170.71573           176.76784           179.49875           178.89352           176.69061           174.37402           172.48284            45.91167            55.97823            71.24723            93.69666           116.96401           133.86368           146.33855           158.66486           169.47389           175.32294           176.19326           174.66661           172.77873           171.23048            48.80725            60.26352            73.56925            90.64216           108.54780           122.77961           135.86204           151.07245           165.17726           173.06733           174.65776           173.32691           171.58571           170.21729            42.98190            69.00881            90.56928           112.78746           129.78317           136.21974           141.81613           153.52572           166.63882           173.88178           174.69400           172.79509           170.81620           169.43591            35.76340            52.33227            69.70496           103.83785           137.90439           150.43692           153.79772           162.22262           172.50875           177.18855           175.99103           172.88848           170.36606           168.82295            40.29983            54.02831            68.66669           101.56408           138.53316           156.35317           162.92404           171.46567           179.59334           181.30600           177.69826           173.18556           170.01958           168.26527            19.00252            50.16801            82.77994           120.83599           152.02472           164.02229           169.49681           178.07199           184.89239           184.36262           178.83475           173.19165           169.52983           167.63509            32.89837            57.64409            92.77217           138.48975           167.92686           171.30991           171.91595           179.57597           186.19441           184.96607           178.65636           172.53122           168.70086           166.82943            22.23249            49.15195            88.30688           137.25235           164.96206           164.98132           165.12753           174.38958           182.84039           182.73975           176.93024           171.06106           167.44580           165.79263            31.93571            58.76257            92.65451           129.54198           148.79780           149.73398           153.57593           165.87498           176.76886           178.56603           174.00170           168.90122           165.80379           164.53494            25.80197            53.66188            89.09146           126.36797           146.25628           147.16058           149.71223           160.64729           171.32920           173.99537           170.53829           166.33112           163.88713           163.10281            21.19337            50.01497            90.53073           140.55471           169.93383           166.23180           158.78702           161.89720           168.52117           170.16011           167.10921           163.62111           161.82543           161.56080            20.17815            46.92382            86.90216           150.68658           198.31612           193.82259           174.52718           167.33338           167.94364           167.24545           163.93959           160.92745           159.71545           159.96502            28.45951            45.77931            83.82836           156.45714           217.01703           214.18844           187.59592           172.67478           167.97972           164.78858           160.96268           158.28220           157.60220           158.35355            15.79942            48.02377           105.00750           183.02608           233.85911           223.33323           193.34851           175.12224           167.24324           162.21747           157.99787           155.65587           155.50647           156.75855            19.06280            57.60901           112.36949           177.63669           219.77241           213.84578           190.19151           173.75554           165.05564           159.18242           154.92206           153.03319           153.44588           155.20643            36.21515            47.76271            70.45185           121.22397           175.24784           191.37629           181.17407           169.39103           161.47584           155.65294           151.74456           150.45003           151.46810           153.74077            27.91006            42.05109            66.70615           114.56938           163.67991           180.06764           173.32268           164.01301           157.15839           151.91507           148.63337           148.01793           149.65047           152.41565            23.42770            58.36716           104.85931           152.08352           180.71238           180.29914           168.48177           159.11623           153.01758           148.47877           145.87277           145.90550           148.09596           151.29746            21.12875            54.91660           101.19798           152.50546           183.57822           180.65464           166.22309           156.08999           150.12908           145.95670           143.79910           144.30336           146.91929           150.45985            43.74906            55.65216            82.14451           136.08452           182.46718           185.14563           168.69280           156.42550           149.43031           144.87270           142.69686           143.37362           146.21745           149.96085            19.57177            50.21799            85.02557           142.26087           191.96622           194.37695           174.97156           159.97750           151.11529           145.42884           142.70709           143.21220           146.05616           149.84524            31.15636            60.18001            94.62911           147.16136           193.08285           197.60689           180.28454           164.97211           154.64130           147.50441           143.83097           143.84395           146.45774           150.12892            23.61078            44.03415            75.99183           128.76240           178.18722           191.78691           182.29591           170.02421           159.39986           150.86386           145.97951           145.23621           147.41089           150.80806            27.70644            49.31182            81.53441           127.40578           168.09844           183.65779           182.17013           175.02449           165.17391           155.35137           149.05437           147.32956           148.87673           151.85541            22.04262            46.36578            74.71739           110.55351           146.40628           169.91415           180.52028           180.58357           172.10219           160.90595           152.96002           150.04266           150.79746           153.22963            35.41805            43.99367            55.73401            82.88990           122.04042           158.30814           181.67548           188.31130           180.48406           167.43797           157.56090           153.26646           153.09078           154.87320            27.88672            45.51156            58.91956            84.33385           123.39187           162.80726           190.30899           198.89612           189.99592           174.58787           162.61189           156.84305           155.65424           156.71616            24.53754            45.93311            60.79099            90.12595           133.18828           173.10453           200.02053           208.62851           198.84924           181.57607           167.75886           160.58194           158.36963           158.68244            53.25065            49.76964            55.44874            84.85014           128.59456           168.05923           197.61086           211.38307           204.71790           187.57205           172.66421           164.31242           161.13245           160.69963            19.45410            39.78602            60.38532            83.42868           110.93261           143.38619           179.83542           205.70251           207.07483           192.37322           177.20951           167.93415           163.85881           162.70233            42.63197            53.82301            65.43962            72.25978            85.87586           115.39422           159.46253           197.62434           208.00077           196.55769           181.49453           171.41635           166.48772           164.63047            53.42845            51.37000            55.71560            62.15509            76.17362           105.15667           150.48523           193.82523           209.78000           200.70353           185.58633           174.70152           168.94839           166.42728            40.70114            45.21910            51.76210            64.20582            81.39610           107.85408           149.44137           192.87604           211.80824           204.44558           189.24530           177.62875           171.13727           168.02570            39.95925            45.94721            52.44578            63.72077            78.53935           102.08512           142.20605           187.90901           211.28790           206.64846           191.96693           179.96029           172.92988           169.35780            64.73217            74.48395            73.08410            68.31393            70.59526            88.48144           127.89093           177.44004           206.97328           206.53915           193.34381           181.49129           174.22531           170.36969            55.55016            67.56976            69.12380            65.53653            65.78453            79.87809           115.96896           165.98237           200.17445           204.25591           193.29040           182.15082           174.98774           171.04543            75.42520            75.24235            73.15571            72.51550            70.96282            79.18902           109.15389           156.20571           192.49415           200.43424           192.02681           182.02235           175.25439           171.40533            55.31249            69.75148            80.05427            79.59489            72.27402            75.74020           102.20846           147.35439           184.85218           195.87259           189.97760           181.31620           175.13278           171.50582           117.53747            84.62590            83.73318            73.17071            62.02987            66.97732            94.98947           140.52771           178.69948           191.61833           187.71725           180.32242           174.77021           171.42608            66.50388            53.13303            69.82796            65.86974            57.13054            64.63940            94.28907           139.29701           175.94161           188.74770           185.82125           179.33725           174.32379           171.24989            60.323