# vtk DataFile Version 3.0
Output from R2
ASCII
DATASET UNSTRUCTURED_GRID
POINTS       2940 double
     0.00000     0.00000   0.
     0.00000    -0.06250   0.
     0.00000    -0.14060   0.
     0.00000    -0.23830   0.
     0.00000    -0.36040   0.
     0.00000    -0.51290   0.
     0.00000    -0.70370   0.
     0.00000    -0.94210   0.
     0.00000    -1.24010   0.
     0.00000    -1.61260   0.
     0.00000    -2.07830   0.
     0.00000    -2.66040   0.
     0.00000    -3.38800   0.
     0.00000    -4.29750   0.
     0.00000    -5.43430   0.
     0.25000     0.00000   0.
     0.25000    -0.06250   0.
     0.25000    -0.14060   0.
     0.25000    -0.23830   0.
     0.25000    -0.36040   0.
     0.25000    -0.51290   0.
     0.25000    -0.70370   0.
     0.25000    -0.94210   0.
     0.25000    -1.24010   0.
     0.25000    -1.61260   0.
     0.25000    -2.07830   0.
     0.25000    -2.66040   0.
     0.25000    -3.38800   0.
     0.25000    -4.29750   0.
     0.25000    -5.43430   0.
     0.50000     0.00000   0.
     0.50000    -0.06250   0.
     0.50000    -0.14060   0.
     0.50000    -0.23830   0.
     0.50000    -0.36040   0.
     0.50000    -0.51290   0.
     0.50000    -0.70370   0.
     0.50000    -0.94210   0.
     0.50000    -1.24010   0.
     0.50000    -1.61260   0.
     0.50000    -2.07830   0.
     0.50000    -2.66040   0.
     0.50000    -3.38800   0.
     0.50000    -4.29750   0.
     0.50000    -5.43430   0.
     0.75000     0.00000   0.
     0.75000    -0.06250   0.
     0.75000    -0.14060   0.
     0.75000    -0.23830   0.
     0.75000    -0.36040   0.
     0.75000    -0.51290   0.
     0.75000    -0.70370   0.
     0.75000    -0.94210   0.
     0.75000    -1.24010   0.
     0.75000    -1.61260   0.
     0.75000    -2.07830   0.
     0.75000    -2.66040   0.
     0.75000    -3.38800   0.
     0.75000    -4.29750   0.
     0.75000    -5.43430   0.
     1.00000     0.00000   0.
     1.00000    -0.06250   0.
     1.00000    -0.14060   0.
     1.00000    -0.23830   0.
     1.00000    -0.36040   0.
     1.00000    -0.51290   0.
     1.00000    -0.70370   0.
     1.00000    -0.94210   0.
     1.00000    -1.24010   0.
     1.00000    -1.61260   0.
     1.00000    -2.07830   0.
     1.00000    -2.66040   0.
     1.00000    -3.38800   0.
     1.00000    -4.29750   0.
     1.00000    -5.43430   0.
     1.25000     0.00000   0.
     1.25000    -0.06250   0.
     1.25000    -0.14060   0.
     1.25000    -0.23830   0.
     1.25000    -0.36040   0.
     1.25000    -0.51290   0.
     1.25000    -0.70370   0.
     1.25000    -0.94210   0.
     1.25000    -1.24010   0.
     1.25000    -1.61260   0.
     1.25000    -2.07830   0.
     1.25000    -2.66040   0.
     1.25000    -3.38800   0.
     1.25000    -4.29750   0.
     1.25000    -5.43430   0.
     1.50000     0.00000   0.
     1.50000    -0.06250   0.
     1.50000    -0.14060   0.
     1.50000    -0.23830   0.
     1.50000    -0.36040   0.
     1.50000    -0.51290   0.
     1.50000    -0.70370   0.
     1.50000    -0.94210   0.
     1.50000    -1.24010   0.
     1.50000    -1.61260   0.
     1.50000    -2.07830   0.
     1.50000    -2.66040   0.
     1.50000    -3.38800   0.
     1.50000    -4.29750   0.
     1.50000    -5.43430   0.
     1.75000     0.00000   0.
     1.75000    -0.06250   0.
     1.75000    -0.14060   0.
     1.75000    -0.23830   0.
     1.75000    -0.36040   0.
     1.75000    -0.51290   0.
     1.75000    -0.70370   0.
     1.75000    -0.94210   0.
     1.75000    -1.24010   0.
     1.75000    -1.61260   0.
     1.75000    -2.07830   0.
     1.75000    -2.66040   0.
     1.75000    -3.38800   0.
     1.75000    -4.29750   0.
     1.75000    -5.43430   0.
     2.00000     0.00000   0.
     2.00000    -0.06250   0.
     2.00000    -0.14060   0.
     2.00000    -0.23830   0.
     2.00000    -0.36040   0.
     2.00000    -0.51290   0.
     2.00000    -0.70370   0.
     2.00000    -0.94210   0.
     2.00000    -1.24010   0.
     2.00000    -1.61260   0.
     2.00000    -2.07830   0.
     2.00000    -2.66040   0.
     2.00000    -3.38800   0.
     2.00000    -4.29750   0.
     2.00000    -5.43430   0.
     2.25000     0.00000   0.
     2.25000    -0.06250   0.
     2.25000    -0.14060   0.
     2.25000    -0.23830   0.
     2.25000    -0.36040   0.
     2.25000    -0.51290   0.
     2.25000    -0.70370   0.
     2.25000    -0.94210   0.
     2.25000    -1.24010   0.
     2.25000    -1.61260   0.
     2.25000    -2.07830   0.
     2.25000    -2.66040   0.
     2.25000    -3.38800   0.
     2.25000    -4.29750   0.
     2.25000    -5.43430   0.
     2.50000     0.00000   0.
     2.50000    -0.06250   0.
     2.50000    -0.14060   0.
     2.50000    -0.23830   0.
     2.50000    -0.36040   0.
     2.50000    -0.51290   0.
     2.50000    -0.70370   0.
     2.50000    -0.94210   0.
     2.50000    -1.24010   0.
     2.50000    -1.61260   0.
     2.50000    -2.07830   0.
     2.50000    -2.66040   0.
     2.50000    -3.38800   0.
     2.50000    -4.29750   0.
     2.50000    -5.43430   0.
     2.75000     0.00000   0.
     2.75000    -0.06250   0.
     2.75000    -0.14060   0.
     2.75000    -0.23830   0.
     2.75000    -0.36040   0.
     2.75000    -0.51290   0.
     2.75000    -0.70370   0.
     2.75000    -0.94210   0.
     2.75000    -1.24010   0.
     2.75000    -1.61260   0.
     2.75000    -2.07830   0.
     2.75000    -2.66040   0.
     2.75000    -3.38800   0.
     2.75000    -4.29750   0.
     2.75000    -5.43430   0.
     3.00000     0.00000   0.
     3.00000    -0.06250   0.
     3.00000    -0.14060   0.
     3.00000    -0.23830   0.
     3.00000    -0.36040   0.
     3.00000    -0.51290   0.
     3.00000    -0.70370   0.
     3.00000    -0.94210   0.
     3.00000    -1.24010   0.
     3.00000    -1.61260   0.
     3.00000    -2.07830   0.
     3.00000    -2.66040   0.
     3.00000    -3.38800   0.
     3.00000    -4.29750   0.
     3.00000    -5.43430   0.
     3.25000     0.00000   0.
     3.25000    -0.06250   0.
     3.25000    -0.14060   0.
     3.25000    -0.23830   0.
     3.25000    -0.36040   0.
     3.25000    -0.51290   0.
     3.25000    -0.70370   0.
     3.25000    -0.94210   0.
     3.25000    -1.24010   0.
     3.25000    -1.61260   0.
     3.25000    -2.07830   0.
     3.25000    -2.66040   0.
     3.25000    -3.38800   0.
     3.25000    -4.29750   0.
     3.25000    -5.43430   0.
     3.50000     0.00000   0.
     3.50000    -0.06250   0.
     3.50000    -0.14060   0.
     3.50000    -0.23830   0.
     3.50000    -0.36040   0.
     3.50000    -0.51290   0.
     3.50000    -0.70370   0.
     3.50000    -0.94210   0.
     3.50000    -1.24010   0.
     3.50000    -1.61260   0.
     3.50000    -2.07830   0.
     3.50000    -2.66040   0.
     3.50000    -3.38800   0.
     3.50000    -4.29750   0.
     3.50000    -5.43430   0.
     3.75000     0.00000   0.
     3.75000    -0.06250   0.
     3.75000    -0.14060   0.
     3.75000    -0.23830   0.
     3.75000    -0.36040   0.
     3.75000    -0.51290   0.
     3.75000    -0.70370   0.
     3.75000    -0.94210   0.
     3.75000    -1.24010   0.
     3.75000    -1.61260   0.
     3.75000    -2.07830   0.
     3.75000    -2.66040   0.
     3.75000    -3.38800   0.
     3.75000    -4.29750   0.
     3.75000    -5.43430   0.
     4.00000     0.00000   0.
     4.00000    -0.06250   0.
     4.00000    -0.14060   0.
     4.00000    -0.23830   0.
     4.00000    -0.36040   0.
     4.00000    -0.51290   0.
     4.00000    -0.70370   0.
     4.00000    -0.94210   0.
     4.00000    -1.24010   0.
     4.00000    -1.61260   0.
     4.00000    -2.07830   0.
     4.00000    -2.66040   0.
     4.00000    -3.38800   0.
     4.00000    -4.29750   0.
     4.00000    -5.43430   0.
     4.25000     0.00000   0.
     4.25000    -0.06250   0.
     4.25000    -0.14060   0.
     4.25000    -0.23830   0.
     4.25000    -0.36040   0.
     4.25000    -0.51290   0.
     4.25000    -0.70370   0.
     4.25000    -0.94210   0.
     4.25000    -1.24010   0.
     4.25000    -1.61260   0.
     4.25000    -2.07830   0.
     4.25000    -2.66040   0.
     4.25000    -3.38800   0.
     4.25000    -4.29750   0.
     4.25000    -5.43430   0.
     4.50000     0.00000   0.
     4.50000    -0.06250   0.
     4.50000    -0.14060   0.
     4.50000    -0.23830   0.
     4.50000    -0.36040   0.
     4.50000    -0.51290   0.
     4.50000    -0.70370   0.
     4.50000    -0.94210   0.
     4.50000    -1.24010   0.
     4.50000    -1.61260   0.
     4.50000    -2.07830   0.
     4.50000    -2.66040   0.
     4.50000    -3.38800   0.
     4.50000    -4.29750   0.
     4.50000    -5.43430   0.
     4.75000     0.00000   0.
     4.75000    -0.06250   0.
     4.75000    -0.14060   0.
     4.75000    -0.23830   0.
     4.75000    -0.36040   0.
     4.75000    -0.51290   0.
     4.75000    -0.70370   0.
     4.75000    -0.94210   0.
     4.75000    -1.24010   0.
     4.75000    -1.61260   0.
     4.75000    -2.07830   0.
     4.75000    -2.66040   0.
     4.75000    -3.38800   0.
     4.75000    -4.29750   0.
     4.75000    -5.43430   0.
     5.00000     0.00000   0.
     5.00000    -0.06250   0.
     5.00000    -0.14060   0.
     5.00000    -0.23830   0.
     5.00000    -0.36040   0.
     5.00000    -0.51290   0.
     5.00000    -0.70370   0.
     5.00000    -0.94210   0.
     5.00000    -1.24010   0.
     5.00000    -1.61260   0.
     5.00000    -2.07830   0.
     5.00000    -2.66040   0.
     5.00000    -3.38800   0.
     5.00000    -4.29750   0.
     5.00000    -5.43430   0.
     5.25000     0.00000   0.
     5.25000    -0.06250   0.
     5.25000    -0.14060   0.
     5.25000    -0.23830   0.
[...]
POINT_DATA      2940
CELL_DATA      2730
SCALARS Resistivity(Ohm-m) double 1
LOOKUP_TABLE default
            64.51517            70.79860            78.10151            87.30616            98.83914           111.53181           123.69095           134.08693           142.33082           148.67331           153.57206           157.40954           160.43400           162.80785            38.43544            53.86500            64.38411            76.39346            92.47506           110.56149           127.26689           140.26611           149.19507           155.01238           158.89977           161.67531           163.76559           165.37420            67.05069            63.72211            59.13617            65.12059            82.06297           105.63014           129.06541           146.72069           157.24925           162.60156           165.20852           166.62169           167.54292           168.22091            43.72742            50.61809            48.38271            54.02954            71.54308            99.28666           129.77608           153.36064           166.27920           171.25271           172.35281           172.14241           171.69040           171.30065            62.67748            58.95889            48.20906            48.97344            64.59055            94.49091           130.93364           160.48400           176.06895           180.67776           180.10262           178.07530           176.10021           174.54169           127.16458            79.66127            55.56812            50.08084            62.81173            93.12929           133.47332           167.90167           186.03258           190.36286           188.10861           184.20076           180.63396           177.85913            36.18339            42.35412            52.12848            54.82578            66.34731            94.96953           136.30035           174.09437           194.89799           199.51226           195.92025           190.26262           185.14536           181.16189            43.96158            47.87741            55.78064            57.37093            67.03171            93.71978           135.11762           176.24755           201.00737           207.25839           203.10314           196.03263           189.50270           184.37187            78.94935            49.12142            41.49688            44.15361            57.30094            85.02486           127.48020           172.99044           203.58891           213.18825           209.43679           201.38359           193.62342           187.43129            58.28980            49.39025            43.01652            43.57669            53.57993            77.46205           118.09069           166.89988           203.82790           217.75217           215.05562           206.33139           197.48553           190.30963            49.38575            52.95542            50.89796            49.25644            54.60171            73.61726           111.39170           162.00832           204.15065           222.03194           220.35353           210.99388           201.10848           192.99221            51.90464            42.42989            42.24090            46.12883            54.27118            72.99861           109.75888           161.40786           206.76021           227.08083           225.71855           215.47863           204.49995           195.46205            33.15663            38.55765            48.24208            54.78413            61.93502            78.89846           114.43947           166.08149           212.43509           233.26546           231.23560           219.76688           207.62050           197.67993            33.27462            46.54660            55.73382            60.15657            67.05908            84.74176           121.18993           173.47258           219.87219           239.95019           236.56374           223.66393           210.35390           199.57549            58.58100            45.80336            39.31894            44.13637            58.32915            83.29505           124.81887           179.82565           226.73834           245.88638           241.07605           226.85204           212.53317           201.05901            60.15280            55.19967            45.57465            46.37572            58.49688            83.79596           127.19228           184.00694           231.42844           249.94685           244.13821           228.99846           213.98955           202.04251            30.81695            48.82328            56.04192            59.13095            67.33051            88.73084           130.11508           186.22951           233.28811           251.44951           245.30332           229.85477           214.58942           202.45332            44.64718            45.46814            52.85647            61.95006            72.62682            93.15037           132.42829           186.40187           232.15756           250.13867           244.37342           229.30086           214.26520           202.25836            24.61965            34.10934            51.77679            66.71537            77.90124            96.71696           133.41159           184.34701           228.12081           246.10375           241.39144           227.35751           213.03378           201.47003            36.64241            43.75847            62.56576            75.22022            82.32690            98.21677           132.13635           179.76188           221.38316           239.67129           236.60715           224.17905           210.98428           200.14246            23.01277            33.28061            59.11016            76.18833            83.32748            97.56942           128.72074           172.92337           212.53606           231.46077           230.46245           220.03487           208.27490           198.36809            24.04499            44.26709            73.78816            86.96171            88.54024            98.01275           124.79046           165.07899           202.72536           222.38374           223.55752           215.27993           205.11048           196.26644            50.57273            61.86308            78.04002            86.93413            89.34121            97.61689           121.15742           157.85350           193.46847           213.52326           216.56521           210.30829           201.71715           193.96786            23.91827            44.00569            63.93764            78.92566            87.71239            97.92468           119.71852           153.18316           186.28940           205.88762           210.09395           205.47384           198.30110           191.59567            66.53188            76.93248            82.10057            86.85725            92.34160           101.86984           121.99608           152.25556           182.08104           200.07931           204.53573           201.02416           195.01835           189.24867            32.09567            43.94522            55.39041            70.78704            87.26722           104.01797           126.26453           154.55276           180.70465           196.11198           199.97058           197.05284           191.94673           186.98510            54.46672            53.67422            57.28933            69.10991            86.05083           106.69273           131.91869           159.07911           181.32494           193.50013           196.20019           193.50974           189.09561           184.83128            55.70536            72.67758            76.12791            78.54927            89.40926           111.18077           139.00785           164.71976           182.68593           191.44641           192.85512           190.25597           186.42410           182.78468            71.14546            70.91257            64.98774            69.89648            88.87973           118.07986           147.80864           170.01502           183.26749           189.07027           189.53994           187.13852           183.88451           180.83833            51.93767            55.65691            57.79609            74.37919           103.20142           133.74395           157.24554           172.48170           181.55494           185.71776           186.01007           184.07862           181.45862           178.99455            42.41814            62.93598            78.76327           101.08490           126.30803           145.67784           158.71261           168.91378           176.87109           181.36837           182.34098           181.13590           179.18385           177.27631            46.00636            56.79049            72.04592            94.88313           118.63819           136.09999           148.96827           160.77921           170.83824           176.94917           178.96546           178.50397           177.14908           175.72427            48.40234            58.88267            72.07578            91.31201           112.06870           128.56047           142.05306           155.29099           166.80231           173.88788           176.46168           176.41261           175.44427           174.37543            47.29278            70.18940            87.45332           106.52409           124.94282           137.05375           146.22640           156.68087           166.73046           173.00184           175.13677           174.96887           174.10387           173.23754            37.40094            53.09596            68.52962            98.03691           130.85061           149.07338           156.38988           162.99674           169.84028           173.92696           174.79761           174.06708           173.06891           172.27747            42.01396            54.25059            68.38119           100.68718           139.31383           160.63003           166.66462           170.13644           173.81887           175.48528           174.87080           173.42913           172.20248           171.42379            19.48196            47.98165            79.05592           118.99219           155.83120           171.51280           173.54635           174.59533           176.32322           176.38213           174.70528           172.73317           171.34337           170.59529            35.82934            56.71532            87.45661           130.47350           164.94231           174.76526           173.70576           174.24148           175.96174           175.80290           173.85386           171.74366           170.36552           169.72058            24.06550            47.94234            82.73587           127.16843           159.24235           167.12775           166.95753           169.54658           172.95846           173.74780           172.24627           170.38493           169.20942           168.76187            33.96229            56.35802            87.78131           124.90627           150.42205           157.43885           159.33633           164.05805           169.06362           170.94435           170.13976           168.73256           167.89042           167.71346            27.31132            51.18403            84.96573           124.12231           151.15644           158.15848           158.66846           161.96238           166.32863           168.30998           167.90899           166.92761           166.45535           166.58989            22.77511            48.01466            84.73385           132.51483           168.13763           174.05692           167.67364           164.78948           165.64673           166.32833           165.78691           165.07340           164.94950           165.40989            21.85362            44.56193            80.05034           138.17425           189.23384           196.90192           181.83676           170.50959           166.31607           164.82762           163.75620           163.18491           163.38994           164.18616            29.60525            45.89633            81.24287           147.88739           209.22810           216.72989           194.08267           175.52950           166.80841           163.23943           161.62938           161.20790           161.76749           162.92574            16.74391            46.91571           100.00844           173.31656           227.37378           226.42058           198.93684           176.96888           165.80643           161.02477           159.21116           159.08806           160.07677           161.63796            19.59892            53.71572           104.93058           168.21121           214.47236           216.15410           193.76049           173.86585           162.85015           157.99384           156.45181           156.82922           158.34027           160.34689            36.69868            48.28183            72.63744           122.15321           175.08195           193.36580           182.70644           167.84995           158.53075           154.39635           153.49254           154.52552           156.62332           159.10103            28.74224            41.68745            66.89566           113.88003           163.00299           181.59464           174.15605           161.93949           154.05426           150.78271           150.61810           152.34203           155.02862           157.96437            24.89348            54.77884            97.57868           144.98980           178.52044           183.20861           170.81256           158.00282           150.48989           147.73682           148.15664           150.47164           153.67280           157.00992            22.18496            52.75058            96.39472           146.85082           182.74911           185.99702           170.98910           156.60954           148.50390           145.71120           146.39396           149.09166           152.66963           156.31207            45.34926            56.17162            81.15723           131.36394           180.25897           190.73063           174.78210           158.00096           148.39997           144.96984           145.52212           148.33951           152.11125           155.93001            20.69392            48.66302            81.51755           135.57076           188.65025           199.84527           181.14919           161.48416           150.00287           145.54580           145.62997           148.29649           152.06088           155.90944            33.25124            57.81184            88.42218           139.50771           190.77315           203.20426           185.49682           165.35000           152.79206           147.33299           146.72627           148.99913           152.55156           156.27419            25.19311            43.93277            72.90349           123.31729           176.23902           195.88752           185.48023           168.66565           156.48334           150.27101           148.81448           150.45734           153.59208           157.02967            29.46324            49.43895            77.89687           120.55443           164.40622           185.79120           183.58220           172.18972           161.33219           154.44206           151.90711           152.66378           155.16717           158.16068            22.84010            44.18219            69.96477           105.49799           145.67955           173.75796           182.22980           177.25186           167.81731           159.95458           155.99267           155.57382           157.23223           159.62830            35.53532            43.98089            56.68867            85.61568           128.12180           166.11028           184.81422           185.07094           176.17430           166.73794           160.94440           159.07566           159.70036           161.37230            28.88318            43.61004            57.28427            85.43132           128.74130           170.04800           192.81502           195.22340           185.75783           174.32379           166.46274           162.97734           162.44685           163.30669            24.86448            43.43996            58.67925            88.51915           133.18465           175.07573           199.51938           203.97255           194.71603           181.81777           172.08982           167.02272           165.31613           165.33598            53.79462            51.65143            57.69326            83.70148           125.04384           166.32351           195.61618           206.69458           200.98682           188.29110           177.36539           170.95626           168.15459           167.36005            20.71851            37.76607            56.66136            78.89431           108.50944           144.86034           180.86022           202.73919           203.97046           193.32175           182.00811           174.58743           170.83236           169.29240            42.96558            52.75814            64.07403            73.47669            90.97953           123.08089           164.36866           196.15174           204.85375           197.08962           185.94227           177.80742           173.25665           171.06312            53.42186            50.59361            54.40948            62.61797            80.04125           111.53184           154.24249           191.00297           205.01405           199.89339           189.15623           180.53984           175.35669           172.61835            44.69416            45.19134            48.69134            59.69861            78.95101           108.74001           149.12746           186.92421           204.33804           201.60972           191.53147           182.69684           177.07170           173.91688            42.96696            46.93370            51.46548            61.35021            77.70914           103.72134           141.61975           180.52062           201.58299           201.77774           192.88100           184.19224           178.35774           174.93440            68.60682            69.71986            67.52306            67.04492            74.24610            94.47579           130.13856           170.81772           196.27188           200.19509           193.11880           184.99688           179.20598           175.66926            58.35158            63.96871            65.33279            65.53130            70.33535            86.62302           119.11043           160.11505           189.35082           197.21751           192.39957           185.18705           179.66311           176.14912            82.85210            73.45389            69.25922            69.18627            71.57192            82.90650           110.77353           150.42243           182.19188           193.57980           191.07745           184.94249           179.82363           176.42736            63.12730            66.66346            73.20406            73.89735            71.43989            78.22825           103.21138           142.24339           175.95201           190.12223           189.61829           184.50479           179.81484           176.57206           119.86652            82.44108            80.49629            72.84803            65.05020            71.16426            96.90845           136.91047           171.95467           187.72590           188.50188           184.11841           179.76351           176.65197            69.38209            51.02996            65.51412            64.94401            59.77677            68.39834            96.17499           136.87204           171.54316           187.10691           188.08884           183.96419           179.76231           176.71575            63.020