# vtk DataFile Version 3.0
Output from R2
ASCII
DATASET UNSTRUCTURED_GRID
POINTS       2940 double
     0.00000     0.00000   0.
     0.00000    -0.06250   0.
     0.00000    -0.14060   0.
     0.00000    -0.23830   0.
     0.00000    -0.36040   0.
     0.00000    -0.51290   0.
     0.00000    -0.70370   0.
     0.00000    -0.94210   0.
     0.00000    -1.24010   0.
     0.00000    -1.61260   0.
     0.00000    -2.07830   0.
     0.00000    -2.66040   0.
     0.00000    -3.38800   0.
     0.00000    -4.29750   0.
     0.00000    -5.43430   0.
     0.25000     0.00000   0.
     0.25000    -0.06250   0.
     0.25000    -0.14060   0.
     0.25000    -0.23830   0.
     0.25000    -0.36040   0.
     0.25000    -0.51290   0.
     0.25000    -0.70370   0.
     0.25000    -0.94210   0.
     0.25000    -1.24010   0.
     0.25000    -1.61260   0.
     0.25000    -2.07830   0.
     0.25000    -2.66040   0.
     0.25000    -3.38800   0.
     0.25000    -4.29750   0.
     0.25000    -5.43430   0.
     0.50000     0.00000   0.
     0.50000    -0.06250   0.
     0.50000    -0.14060   0.
     0.50000    -0.23830   0.
     0.50000    -0.36040   0.
     0.50000    -0.51290   0.
     0.50000    -0.70370   0.
     0.50000    -0.94210   0.
     0.50000    -1.24010   0.
     0.50000    -1.61260   0.
     0.50000    -2.07830   0.
     0.50000    -2.66040   0.
     0.50000    -3.38800   0.
     0.50000    -4.29750   0.
     0.50000    -5.43430   0.
     0.75000     0.00000   0.
     0.75000    -0.06250   0.
     0.75000    -0.14060   0.
     0.75000    -0.23830   0.
     0.75000    -0.36040   0.
     0.75000    -0.51290   0.
     0.75000    -0.70370   0.
     0.75000    -0.94210   0.
     0.75000    -1.24010   0.
     0.75000    -1.61260   0.
     0.75000    -2.07830   0.
     0.75000    -2.66040   0.
     0.75000    -3.38800   0.
     0.75000    -4.29750   0.
     0.75000    -5.43430   0.
     1.00000     0.00000   0.
     1.00000    -0.06250   0.
     1.00000    -0.14060   0.
     1.00000    -0.23830   0.
     1.00000    -0.36040   0.
     1.00000    -0.51290   0.
     1.00000    -0.70370   0.
     1.00000    -0.94210   0.
     1.00000    -1.24010   0.
     1.00000    -1.61260   0.
     1.00000    -2.07830   0.
     1.00000    -2.66040   0.
     1.00000    -3.38800   0.
     1.00000    -4.29750   0.
     1.00000    -5.43430   0.
     1.25000     0.00000   0.
     1.25000    -0.06250   0.
     1.25000    -0.14060   0.
     1.25000    -0.23830   0.
     1.25000    -0.36040   0.
     1.25000    -0.51290   0.
     1.25000    -0.70370   0.
     1.25000    -0.94210   0.
     1.25000    -1.24010   0.
     1.25000    -1.61260   0.
     1.25000    -2.07830   0.
     1.25000    -2.66040   0.
     1.25000    -3.38800   0.
     1.25000    -4.29750   0.
     1.25000    -5.43430   0.
     1.50000     0.00000   0.
     1.50000    -0.06250   0.
     1.50000    -0.14060   0.
     1.50000    -0.23830   0.
     1.50000    -0.36040   0.
     1.50000    -0.51290   0.
     1.50000    -0.70370   0.
     1.50000    -0.94210   0.
     1.50000    -1.24010   0.
     1.50000    -1.61260   0.
     1.50000    -2.07830   0.
     1.50000    -2.66040   0.
     1.50000    -3.38800   0.
     1.50000    -4.29750   0.
     1.50000    -5.43430   0.
     1.75000     0.00000   0.
     1.75000    -0.06250   0.
     1.75000    -0.14060   0.
     1.75000    -0.23830   0.
     1.75000    -0.36040   0.
     1.75000    -0.51290   0.
     1.75000    -0.70370   0.
     1.75000    -0.94210   0.
     1.75000    -1.24010   0.
     1.75000    -1.61260   0.
     1.75000    -2.07830   0.
     1.75000    -2.66040   0.
     1.75000    -3.38800   0.
     1.75000    -4.29750   0.
     1.75000    -5.43430   0.
     2.00000     0.00000   0.
     2.00000    -0.06250   0.
     2.00000    -0.14060   0.
     2.00000    -0.23830   0.
     2.00000    -0.36040   0.
     2.00000    -0.51290   0.
     2.00000    -0.70370   0.
     2.00000    -0.94210   0.
     2.00000    -1.24010   0.
     2.00000    -1.61260   0.
     2.00000    -2.07830   0.
     2.00000    -2.66040   0.
     2.00000    -3.38800   0.
     2.00000    -4.29750   0.
     2.00000    -5.43430   0.
     2.25000     0.00000   0.
     2.25000    -0.06250   0.
     2.25000    -0.14060   0.
     2.25000    -0.23830   0.
     2.25000    -0.36040   0.
     2.25000    -0.51290   0.
     2.25000    -0.70370   0.
     2.25000    -0.94210   0.
     2.25000    -1.24010   0.
     2.25000    -1.61260   0.
     2.25000    -2.07830   0.
     2.25000    -2.66040   0.
     2.25000    -3.38800   0.
     2.25000    -4.29750   0.
     2.25000    -5.43430   0.
     2.50000     0.00000   0.
     2.50000    -0.06250   0.
     2.50000    -0.14060   0.
     2.50000    -0.23830   0.
     2.50000    -0.36040   0.
     2.50000    -0.51290   0.
     2.50000    -0.70370   0.
     2.50000    -0.94210   0.
     2.50000    -1.24010   0.
     2.50000    -1.61260   0.
     2.50000    -2.07830   0.
     2.50000    -2.66040   0.
     2.50000    -3.38800   0.
     2.50000    -4.29750   0.
     2.50000    -5.43430   0.
     2.75000     0.00000   0.
     2.75000    -0.06250   0.
     2.75000    -0.14060   0.
     2.75000    -0.23830   0.
     2.75000    -0.36040   0.
     2.75000    -0.51290   0.
     2.75000    -0.70370   0.
     2.75000    -0.94210   0.
     2.75000    -1.24010   0.
     2.75000    -1.61260   0.
     2.75000    -2.07830   0.
     2.75000    -2.66040   0.
     2.75000    -3.38800   0.
     2.75000    -4.29750   0.
     2.75000    -5.43430   0.
     3.00000     0.00000   0.
     3.00000    -0.06250   0.
     3.00000    -0.14060   0.
     3.00000    -0.23830   0.
     3.00000    -0.36040   0.
     3.00000    -0.51290   0.
     3.00000    -0.70370   0.
     3.00000    -0.94210   0.
     3.00000    -1.24010   0.
     3.00000    -1.61260   0.
     3.00000    -2.07830   0.
     3.00000    -2.66040   0.
     3.00000    -3.38800   0.
     3.00000    -4.29750   0.
     3.00000    -5.43430   0.
     3.25000     0.00000   0.
     3.25000    -0.06250   0.
     3.25000    -0.14060   0.
     3.25000    -0.23830   0.
     3.25000    -0.36040   0.
     3.25000    -0.51290   0.
     3.25000    -0.70370   0.
     3.25000    -0.94210   0.
     3.25000    -1.24010   0.
     3.25000    -1.61260   0.
     3.25000    -2.07830   0.
     3.25000    -2.66040   0.
     3.25000    -3.38800   0.
     3.25000    -4.29750   0.
     3.25000    -5.43430   0.
     3.50000     0.00000   0.
     3.50000    -0.06250   0.
     3.50000    -0.14060   0.
     3.50000    -0.23830   0.
     3.50000    -0.36040   0.
     3.50000    -0.51290   0.
     3.50000    -0.70370   0.
     3.50000    -0.94210   0.
     3.50000    -1.24010   0.
     3.50000    -1.61260   0.
     3.50000    -2.07830   0.
     3.50000    -2.66040   0.
     3.50000    -3.38800   0.
     3.50000    -4.29750   0.
     3.50000    -5.43430   0.
     3.75000     0.00000   0.
     3.75000    -0.06250   0.
     3.75000    -0.14060   0.
     3.75000    -0.23830   0.
     3.75000    -0.36040   0.
     3.75000    -0.51290   0.
     3.75000    -0.70370   0.
     3.75000    -0.94210   0.
     3.75000    -1.24010   0.
     3.75000    -1.61260   0.
     3.75000    -2.07830   0.
     3.75000    -2.66040   0.
     3.75000    -3.38800   0.
     3.75000    -4.29750   0.
     3.75000    -5.43430   0.
     4.00000     0.00000   0.
     4.00000    -0.06250   0.
     4.00000    -0.14060   0.
     4.00000    -0.23830   0.
     4.00000    -0.36040   0.
     4.00000    -0.51290   0.
     4.00000    -0.70370   0.
     4.00000    -0.94210   0.
     4.00000    -1.24010   0.
     4.00000    -1.61260   0.
     4.00000    -2.07830   0.
     4.00000    -2.66040   0.
     4.00000    -3.38800   0.
     4.00000    -4.29750   0.
     4.00000    -5.43430   0.
     4.25000     0.00000   0.
     4.25000    -0.06250   0.
     4.25000    -0.14060   0.
     4.25000    -0.23830   0.
     4.25000    -0.36040   0.
     4.25000    -0.51290   0.
     4.25000    -0.70370   0.
     4.25000    -0.94210   0.
     4.25000    -1.24010   0.
     4.25000    -1.61260   0.
     4.25000    -2.07830   0.
     4.25000    -2.66040   0.
     4.25000    -3.38800   0.
     4.25000    -4.29750   0.
     4.25000    -5.43430   0.
     4.50000     0.00000   0.
     4.50000    -0.06250   0.
     4.50000    -0.14060   0.
     4.50000    -0.23830   0.
     4.50000    -0.36040   0.
     4.50000    -0.51290   0.
     4.50000    -0.70370   0.
     4.50000    -0.94210   0.
     4.50000    -1.24010   0.
     4.50000    -1.61260   0.
     4.50000    -2.07830   0.
     4.50000    -2.66040   0.
     4.50000    -3.38800   0.
     4.50000    -4.29750   0.
     4.50000    -5.43430   0.
     4.75000     0.00000   0.
     4.75000    -0.06250   0.
     4.75000    -0.14060   0.
     4.75000    -0.23830   0.
     4.75000    -0.36040   0.
     4.75000    -0.51290   0.
     4.75000    -0.70370   0.
     4.75000    -0.94210   0.
     4.75000    -1.24010   0.
     4.75000    -1.61260   0.
     4.75000    -2.07830   0.
     4.75000    -2.66040   0.
     4.75000    -3.38800   0.
     4.75000    -4.29750   0.
     4.75000    -5.43430   0.
     5.00000     0.00000   0.
     5.00000    -0.06250   0.
     5.00000    -0.14060   0.
     5.00000    -0.23830   0.
     5.00000    -0.36040   0.
     5.00000    -0.51290   0.
     5.00000    -0.70370   0.
     5.00000    -0.94210   0.
     5.00000    -1.24010   0.
     5.00000    -1.61260   0.
     5.00000    -2.07830   0.
     5.00000    -2.66040   0.
     5.00000    -3.38800   0.
     5.00000    -4.29750   0.
     5.00000    -5.43430   0.
     5.25000     0.00000   0.
     5.25000    -0.06250   0.
     5.25000    -0.14060   0.
     5.25000    -0.23830   0.
[...]
POINT_DATA      2940
CELL_DATA      2730
SCALARS Resistivity(Ohm-m) double 1
LOOKUP_TABLE default
            52.66600            57.11043            63.06739            70.40507            78.59396            86.29142            92.33691            96.38204            98.71896            99.85122           100.29453           100.40669           100.39020           100.35427            39.12481            49.32059            57.62845            67.44721            79.14673            90.15659            98.20060           102.76722           104.59284           104.77077           104.20036           103.41696           102.69320           102.09726            52.75159            54.52196            54.68167            62.41609            76.63718            91.92721           103.33951           109.27711           110.89735           110.13080           108.44803           106.67440           105.14407           103.89891            39.52057            46.25114            46.86268            55.08043            71.75749            91.33925           106.92548           115.18909           117.19619           115.68333           112.89270           110.05780           107.63855           105.72099            55.54260            53.81392            47.63954            52.82074            68.73130            90.08573           109.03467           120.04347           123.02199           121.08881           117.30200           113.41745           110.12707           107.56884            85.83984            64.00424            52.58820            54.99584            68.38113            88.99384           109.77069           123.41729           127.87787           125.99304           121.47527           116.68201           112.59999           109.41706            28.95415            38.01802            47.13028            55.42440            67.96383            87.18526           108.84593           125.00828           131.49940           130.24742           125.35889           119.83091           115.01009           111.20150            40.77152            43.35494            50.12554            56.24737            66.26330            83.92788           106.24528           124.95624           133.94872           133.84326           128.90471           122.78600           117.28115           112.88688            55.82164            47.17523            47.24703            51.24700            60.96853            78.78148           102.33810           123.71791           135.47114           136.85636           132.11199           125.53028           119.41653           114.48973            49.97154            43.95554            43.01990            46.52229            56.21596            74.13463            98.63304           122.28504           136.62386           139.54630           135.08850           128.11549           121.44585           116.01637            46.93793            43.05683            42.49186            45.53665            54.51418            71.83589            96.55067           121.69890           138.04570           142.23635           137.98638           130.61691           123.39946           117.47221            52.18193            44.71733            43.85596            46.81022            55.32094            72.08000            96.68441           122.63110           140.25239           145.22932           140.95329           133.08713           125.28082           118.84988            39.46761            40.24281            44.28482            49.03570            57.79905            74.34427            98.84182           125.13883           143.36761           148.59076           143.98302           135.48763           127.05893           120.13686            35.27743            40.18106            44.81423            50.06967            59.70085            76.98892           101.95460           128.59313           147.04500           152.12166           146.96054           137.76528           128.71804           121.32561            55.63440            47.82691            44.37968            48.32900            59.61322            78.78168           104.96305           132.19667           150.78907           155.56015           149.76385           139.86407           130.22048           122.38022            54.91031            48.48650            44.65463            48.74229            60.74753            80.78828           107.70948           135.43467           154.15514           158.61614           152.21432           141.66685           131.48648           123.25277            36.89612            41.94632            45.58153            51.81308            63.71860            83.29442           110.08285           137.97389           156.78558           161.00676           154.11854           143.05481           132.45438           123.91991            49.96795            46.60619            48.70830            54.85577            66.33626            85.33926           111.78419           139.64499           158.48758           162.55540           155.35544           143.96294           133.09740           124.37344            32.84873            35.94634            44.30759            54.61828            67.75099            86.89974           112.99941           140.56880           159.26120           163.21066           155.88096           144.36826           133.40612           124.60865            43.14082            40.39104            48.50934            59.07033            71.45948            89.41194           114.35268           141.03180           159.21996           163.00889           155.70905           144.27967           133.38671           124.62927            28.25848            33.45160            48.24849            62.72248            75.57305            92.38687           115.81117           141.12190           158.46488           162.03277           154.89915           143.73582           133.06257           124.44970            27.91844            35.11726            52.10186            67.63082            79.98340            95.43514           117.14468           140.80577           157.08581           160.40104           153.54720           142.80048           132.47312           124.09477            56.73561            53.39613            62.53086            72.84569            83.13389            97.50538           117.88299           140.01988           155.21988           158.29006           151.79379           141.56760           131.67662           123.59957            33.69066            44.19650            56.29408            68.39475            81.23750            97.24513           117.69403           138.87555           153.12246           155.94311           149.81608           140.15126           130.74306           123.00655            75.65249            67.16670            62.30415            67.00381            79.09088            96.38562           117.38377           137.90710           151.19240           153.64626           147.80446           138.67159           129.74738           122.36322            48.58534            52.90332            53.31810            61.02990            76.21630            96.06005           117.96290           137.76055           149.82680           151.65623           145.92873           137.23969           128.76154           121.71580            55.06962            58.54461            57.44784            64.23741            79.28871            99.30911           120.69651           138.93407           149.25651           150.12600           144.30603           135.94174           127.84468           121.10243            57.06197            65.42971            66.32886            72.63832            86.59775           105.46033           125.21356           141.17146           149.36199           149.04830           142.97860           134.82716           127.03746           120.55247            56.58842            64.61037            67.34297            75.97237            91.78127           111.18875           129.82547           143.61619           149.76424           148.30038           141.93244           133.91554           126.36462           120.08750            55.47895            61.62401            65.74398            77.11577            95.35600           115.67526           133.50204           145.57869           150.13503           147.76759           141.14617           133.21556           125.84058           119.72074            49.70854            60.22152            67.95966            80.84222            99.33202           119.14432           135.98215           146.86589           150.39688           147.43431           140.62873           132.74125           125.47701           119.46071            51.89137            61.23108            69.22852            82.58408           101.34412           121.08645           137.50969           147.78264           150.73261           147.38787           140.42127           132.51383           125.28560           119.31478            58.17418            66.02472            72.16861            84.75046           103.46103           123.14024           139.19992           148.95901           151.43759           147.74684           140.56684           132.54840           125.27216           119.28613            55.58178            67.42928            73.84356            86.60912           105.95987           125.89906           141.58301           150.72992           152.67098           148.56619           141.07585           132.84202           125.43187           119.37075            47.76573            58.85831            66.63021            82.70504           105.80366           128.02597           144.15977           152.92220           154.36143           149.80055           141.91445           133.37153           125.75008           119.55916            49.23392            56.96837            63.91671            81.31224           106.62983           130.33253           146.74667           155.24836           156.31669           151.33545           143.01384           134.09548           126.20170           119.83570            31.72813            45.59343            60.38903            82.45959           109.55305           133.17587           149.11339           157.38643           158.30526           153.02693           144.28484           134.95808           126.75159           120.17760            44.75923            54.06815            67.92501            89.33113           114.34193           135.72826           150.68454           159.00306           160.12587           154.74356           145.63854           135.90017           127.36086           120.55900            35.65028            48.85085            67.63264            91.23565           115.60151           135.91122           150.90058           159.98630           161.72276           156.41696           147.00726           136.86767           127.99156           120.95504            42.99337            53.41535            70.68377            92.40744           114.95214           134.75811           150.55144           160.80491           163.27733           158.06599           148.35070           137.81257           128.60578           121.34053            38.60093            49.27893            66.50659            88.72702           112.48034           133.80221           150.97267           162.19368           165.06650           159.73663           149.63457           138.68781           129.16493           121.68847            35.28866            45.64733            61.57848            84.70479           111.32038           135.09616           153.30999           164.64224           167.21045           161.39875           150.79541           139.43823           129.62892           121.97117            35.94457            45.27999            60.60451            85.19731           114.43611           139.67432           157.62444           167.93036           169.47681           162.87778           151.71920           139.99398           129.95548           122.16250            38.32198            47.63096            64.09888            90.35125           120.70941           145.67004           162.26764           170.99345           171.28307           163.87741           152.25718           140.27894           130.10440           122.24022            26.95905            39.94035            61.68053            91.91005           123.90891           148.83349           164.67983           172.46717           171.97438           164.10315           152.27917           140.23452           130.04791           122.18994            27.83122            41.19187            63.21930            92.56926           123.16262           147.61374           163.72209           171.71290           171.24678           163.42709           151.73601           139.84326           129.78025           122.00954            45.77016            53.63823            68.58449            91.75037           119.00902           143.19643           160.35838           169.27091           169.36245           161.97541           150.69074           139.13842           129.32048           121.71081            40.01550            48.43466            63.14847            86.22367           113.97371           139.09282           157.08667           166.51308           166.99180           160.06552           149.29525           138.19527           128.70849           121.31701            37.60538            48.46954            65.36162            89.10514           116.10200           139.73903           156.26473           164.67721           164.77748           158.03180           147.72561           137.10774           127.99527           120.85690            33.11943            49.01855            69.38939            94.93513           121.88689           143.64080           157.56922           163.89946           162.95409           156.07449           146.12083           135.96339           127.23343           120.36126            50.47700            60.60445            74.21425            97.36051           124.91107           146.67566           159.03291           163.48383           161.39306           154.25055           144.56655           134.83111           126.47003           119.86021            37.09561            51.77259            67.05449            92.10429           122.77327           146.72207           159.20222           162.73938           159.88682           152.55925           143.11805           133.76501           125.74485           119.38057            43.18078            56.09005            68.16982            90.76415           120.53170           144.93391           157.92534           161.42243           158.34795           151.01930           141.82847           132.81524           125.09415           118.94607            39.18362            52.18336            65.04816            87.10671           116.16429           141.09269           155.30281           159.60713           156.83719           149.69527           140.75876           132.03037           124.55232           118.57954            36.92981            49.72860            62.17666            82.74838           110.55564           136.05451           151.98676           157.66226           155.54158           148.68908           139.97095           131.45060           124.14685           118.30081            32.28468            45.49157            57.37251            76.73321           104.04839           130.76014           148.76314           156.02561           154.66783           148.09867           139.51501           131.10327           123.89452           118.12207            39.11861            48.03606            54.90873            71.55043            98.32184           126.30719           146.22698           154.95701           154.31644           147.96436           139.40977           130.99837           123.80078           118.04626            37.92269            46.97232            52.69791            68.38129            94.77464           123.30818           144.46209           154.39164           154.42079           148.24187           139.62941           131.12170           123.85717           118.06707            36.99427            46.61389            52.77180            67.98712            93.25218           121.15842           142.89633           153.96253           154.77596           148.81744           140.10923           131.43619           124.04207           118.17097            51.59358            51.71987            55.08622            68.76267            91.91376           118.48241           140.71194           153.22105           155.13361           149.54896           140.76581           131.89170           124.32450           118.33819            27.16796            37.22100            50.15288            67.21053            89.41874           114.70632           137.58186           151.91875           155.30174           150.30145           141.51085           132.43181           124.66784           118.54475            38.50925            45.03533            56.08283            69.56185            87.45965           110.35033           133.70053           150.04991           155.17998           150.96576           142.25936           132.99822           125.03393           118.76631            46.94519            48.63202            55.04336            65.35250            81.58010           104.29939           129.05706           147.68692           154.73578           151.46288           142.93737           133.53781           125.38882           118.98200            44.64442            44.90343            48.82729            58.28830            74.82762            98.34005           124.51122           145.14322           154.01134           151.74036           143.48194           134.00313           125.70190           119.17270            50.56915            49.09074            50.67588            58.09484            72.87444            95.08018           121.02238           142.68788           153.02464           151.74303           143.83270           134.34798           125.94181           119.31770            65.25481            61.39762            59.89994            63.52059            74.49711            93.64387           118.09721           140.08557           151.65670           151.39308           143.93189           134.53095           126.08076           119.39901            64.50411            62.63798            62.31244            65.14065            74.09795            91.11521           114.44910           136.87402           149.76651           150.63852           143.74689           134.52754           126.10157           119.40503            84.42179            69.90626            64.98095            65.25373            71.94555            87.18634           109.86581           133.04640           147.42017           149.52506           143.29237           134.33630           125.99784           119.32898            79.65620            69.63589            66.87685            65.47880            69.47609            82.86466           105.08806           129.13254           144.93487           148.20539           142.62873           133.97521           125.77062           119.16688           109.16415            77.43070            70.24904            65.73985            67.09961            79.09235           101.11713           125.87315           142.72696           146.86802           141.82895           133.46819           125.42523           118.91871            64.19921            56.96068            61.81828            62.09449            64.43192            76.55141            98.75051           123.83535           141.09349           145.63609           140.93592           132.82851           124.96579           118.58633            53.608