# vtk DataFile Version 3.0
Output from R2
ASCII
DATASET UNSTRUCTURED_GRID
POINTS       2940 double
     0.00000     0.00000   0.
     0.00000    -0.06250   0.
     0.00000    -0.14060   0.
     0.00000    -0.23830   0.
     0.00000    -0.36040   0.
     0.00000    -0.51290   0.
     0.00000    -0.70370   0.
     0.00000    -0.94210   0.
     0.00000    -1.24010   0.
     0.00000    -1.61260   0.
     0.00000    -2.07830   0.
     0.00000    -2.66040   0.
     0.00000    -3.38800   0.
     0.00000    -4.29750   0.
     0.00000    -5.43430   0.
     0.25000     0.00000   0.
     0.25000    -0.06250   0.
     0.25000    -0.14060   0.
     0.25000    -0.23830   0.
     0.25000    -0.36040   0.
     0.25000    -0.51290   0.
     0.25000    -0.70370   0.
     0.25000    -0.94210   0.
     0.25000    -1.24010   0.
     0.25000    -1.61260   0.
     0.25000    -2.07830   0.
     0.25000    -2.66040   0.
     0.25000    -3.38800   0.
     0.25000    -4.29750   0.
     0.25000    -5.43430   0.
     0.50000     0.00000   0.
     0.50000    -0.06250   0.
     0.50000    -0.14060   0.
     0.50000    -0.23830   0.
     0.50000    -0.36040   0.
     0.50000    -0.51290   0.
     0.50000    -0.70370   0.
     0.50000    -0.94210   0.
     0.50000    -1.24010   0.
     0.50000    -1.61260   0.
     0.50000    -2.07830   0.
     0.50000    -2.66040   0.
     0.50000    -3.38800   0.
     0.50000    -4.29750   0.
     0.50000    -5.43430   0.
     0.75000     0.00000   0.
     0.75000    -0.06250   0.
     0.75000    -0.14060   0.
     0.75000    -0.23830   0.
     0.75000    -0.36040   0.
     0.75000    -0.51290   0.
     0.75000    -0.70370   0.
     0.75000    -0.94210   0.
     0.75000    -1.24010   0.
     0.75000    -1.61260   0.
     0.75000    -2.07830   0.
     0.75000    -2.66040   0.
     0.75000    -3.38800   0.
     0.75000    -4.29750   0.
     0.75000    -5.43430   0.
     1.00000     0.00000   0.
     1.00000    -0.06250   0.
     1.00000    -0.14060   0.
     1.00000    -0.23830   0.
     1.00000    -0.36040   0.
     1.00000    -0.51290   0.
     1.00000    -0.70370   0.
     1.00000    -0.94210   0.
     1.00000    -1.24010   0.
     1.00000    -1.61260   0.
     1.00000    -2.07830   0.
     1.00000    -2.66040   0.
     1.00000    -3.38800   0.
     1.00000    -4.29750   0.
     1.00000    -5.43430   0.
     1.25000     0.00000   0.
     1.25000    -0.06250   0.
     1.25000    -0.14060   0.
     1.25000    -0.23830   0.
     1.25000    -0.36040   0.
     1.25000    -0.51290   0.
     1.25000    -0.70370   0.
     1.25000    -0.94210   0.
     1.25000    -1.24010   0.
     1.25000    -1.61260   0.
     1.25000    -2.07830   0.
     1.25000    -2.66040   0.
     1.25000    -3.38800   0.
     1.25000    -4.29750   0.
     1.25000    -5.43430   0.
     1.50000     0.00000   0.
     1.50000    -0.06250   0.
     1.50000    -0.14060   0.
     1.50000    -0.23830   0.
     1.50000    -0.36040   0.
     1.50000    -0.51290   0.
     1.50000    -0.70370   0.
     1.50000    -0.94210   0.
     1.50000    -1.24010   0.
     1.50000    -1.61260   0.
     1.50000    -2.07830   0.
     1.50000    -2.66040   0.
     1.50000    -3.38800   0.
     1.50000    -4.29750   0.
     1.50000    -5.43430   0.
     1.75000     0.00000   0.
     1.75000    -0.06250   0.
     1.75000    -0.14060   0.
     1.75000    -0.23830   0.
     1.75000    -0.36040   0.
     1.75000    -0.51290   0.
     1.75000    -0.70370   0.
     1.75000    -0.94210   0.
     1.75000    -1.24010   0.
     1.75000    -1.61260   0.
     1.75000    -2.07830   0.
     1.75000    -2.66040   0.
     1.75000    -3.38800   0.
     1.75000    -4.29750   0.
     1.75000    -5.43430   0.
     2.00000     0.00000   0.
     2.00000    -0.06250   0.
     2.00000    -0.14060   0.
     2.00000    -0.23830   0.
     2.00000    -0.36040   0.
     2.00000    -0.51290   0.
     2.00000    -0.70370   0.
     2.00000    -0.94210   0.
     2.00000    -1.24010   0.
     2.00000    -1.61260   0.
     2.00000    -2.07830   0.
     2.00000    -2.66040   0.
     2.00000    -3.38800   0.
     2.00000    -4.29750   0.
     2.00000    -5.43430   0.
     2.25000     0.00000   0.
     2.25000    -0.06250   0.
     2.25000    -0.14060   0.
     2.25000    -0.23830   0.
     2.25000    -0.36040   0.
     2.25000    -0.51290   0.
     2.25000    -0.70370   0.
     2.25000    -0.94210   0.
     2.25000    -1.24010   0.
     2.25000    -1.61260   0.
     2.25000    -2.07830   0.
     2.25000    -2.66040   0.
     2.25000    -3.38800   0.
     2.25000    -4.29750   0.
     2.25000    -5.43430   0.
     2.50000     0.00000   0.
     2.50000    -0.06250   0.
     2.50000    -0.14060   0.
     2.50000    -0.23830   0.
     2.50000    -0.36040   0.
     2.50000    -0.51290   0.
     2.50000    -0.70370   0.
     2.50000    -0.94210   0.
     2.50000    -1.24010   0.
     2.50000    -1.61260   0.
     2.50000    -2.07830   0.
     2.50000    -2.66040   0.
     2.50000    -3.38800   0.
     2.50000    -4.29750   0.
     2.50000    -5.43430   0.
     2.75000     0.00000   0.
     2.75000    -0.06250   0.
     2.75000    -0.14060   0.
     2.75000    -0.23830   0.
     2.75000    -0.36040   0.
     2.75000    -0.51290   0.
     2.75000    -0.70370   0.
     2.75000    -0.94210   0.
     2.75000    -1.24010   0.
     2.75000    -1.61260   0.
     2.75000    -2.07830   0.
     2.75000    -2.66040   0.
     2.75000    -3.38800   0.
     2.75000    -4.29750   0.
     2.75000    -5.43430   0.
     3.00000     0.00000   0.
     3.00000    -0.06250   0.
     3.00000    -0.14060   0.
     3.00000    -0.23830   0.
     3.00000    -0.36040   0.
     3.00000    -0.51290   0.
     3.00000    -0.70370   0.
     3.00000    -0.94210   0.
     3.00000    -1.24010   0.
     3.00000    -1.61260   0.
     3.00000    -2.07830   0.
     3.00000    -2.66040   0.
     3.00000    -3.38800   0.
     3.00000    -4.29750   0.
     3.00000    -5.43430   0.
     3.25000     0.00000   0.
     3.25000    -0.06250   0.
     3.25000    -0.14060   0.
     3.25000    -0.23830   0.
     3.25000    -0.36040   0.
     3.25000    -0.51290   0.
     3.25000    -0.70370   0.
     3.25000    -0.94210   0.
     3.25000    -1.24010   0.
     3.25000    -1.61260   0.
     3.25000    -2.07830   0.
     3.25000    -2.66040   0.
     3.25000    -3.38800   0.
     3.25000    -4.29750   0.
     3.25000    -5.43430   0.
     3.50000     0.00000   0.
     3.50000    -0.06250   0.
     3.50000    -0.14060   0.
     3.50000    -0.23830   0.
     3.50000    -0.36040   0.
     3.50000    -0.51290   0.
     3.50000    -0.70370   0.
     3.50000    -0.94210   0.
     3.50000    -1.24010   0.
     3.50000    -1.61260   0.
     3.50000    -2.07830   0.
     3.50000    -2.66040   0.
     3.50000    -3.38800   0.
     3.50000    -4.29750   0.
     3.50000    -5.43430   0.
     3.75000     0.00000   0.
     3.75000    -0.06250   0.
     3.75000    -0.14060   0.
     3.75000    -0.23830   0.
     3.75000    -0.36040   0.
     3.75000    -0.51290   0.
     3.75000    -0.70370   0.
     3.75000    -0.94210   0.
     3.75000    -1.24010   0.
     3.75000    -1.61260   0.
     3.75000    -2.07830   0.
     3.75000    -2.66040   0.
     3.75000    -3.38800   0.
     3.75000    -4.29750   0.
     3.75000    -5.43430   0.
     4.00000     0.00000   0.
     4.00000    -0.06250   0.
     4.00000    -0.14060   0.
     4.00000    -0.23830   0.
     4.00000    -0.36040   0.
     4.00000    -0.51290   0.
     4.00000    -0.70370   0.
     4.00000    -0.94210   0.
     4.00000    -1.24010   0.
     4.00000    -1.61260   0.
     4.00000    -2.07830   0.
     4.00000    -2.66040   0.
     4.00000    -3.38800   0.
     4.00000    -4.29750   0.
     4.00000    -5.43430   0.
     4.25000     0.00000   0.
     4.25000    -0.06250   0.
     4.25000    -0.14060   0.
     4.25000    -0.23830   0.
     4.25000    -0.36040   0.
     4.25000    -0.51290   0.
     4.25000    -0.70370   0.
     4.25000    -0.94210   0.
     4.25000    -1.24010   0.
     4.25000    -1.61260   0.
     4.25000    -2.07830   0.
     4.25000    -2.66040   0.
     4.25000    -3.38800   0.
     4.25000    -4.29750   0.
     4.25000    -5.43430   0.
     4.50000     0.00000   0.
     4.50000    -0.06250   0.
     4.50000    -0.14060   0.
     4.50000    -0.23830   0.
     4.50000    -0.36040   0.
     4.50000    -0.51290   0.
     4.50000    -0.70370   0.
     4.50000    -0.94210   0.
     4.50000    -1.24010   0.
     4.50000    -1.61260   0.
     4.50000    -2.07830   0.
     4.50000    -2.66040   0.
     4.50000    -3.38800   0.
     4.50000    -4.29750   0.
     4.50000    -5.43430   0.
     4.75000     0.00000   0.
     4.75000    -0.06250   0.
     4.75000    -0.14060   0.
     4.75000    -0.23830   0.
     4.75000    -0.36040   0.
     4.75000    -0.51290   0.
     4.75000    -0.70370   0.
     4.75000    -0.94210   0.
     4.75000    -1.24010   0.
     4.75000    -1.61260   0.
     4.75000    -2.07830   0.
     4.75000    -2.66040   0.
     4.75000    -3.38800   0.
     4.75000    -4.29750   0.
     4.75000    -5.43430   0.
     5.00000     0.00000   0.
     5.00000    -0.06250   0.
     5.00000    -0.14060   0.
     5.00000    -0.23830   0.
     5.00000    -0.36040   0.
     5.00000    -0.51290   0.
     5.00000    -0.70370   0.
     5.00000    -0.94210   0.
     5.00000    -1.24010   0.
     5.00000    -1.61260   0.
     5.00000    -2.07830   0.
     5.00000    -2.66040   0.
     5.00000    -3.38800   0.
     5.00000    -4.29750   0.
     5.00000    -5.43430   0.
     5.25000     0.00000   0.
     5.25000    -0.06250   0.
     5.25000    -0.14060   0.
     5.25000    -0.23830   0.
[...]
POINT_DATA      2940
CELL_DATA      2730
SCALARS Resistivity(Ohm-m) double 1
LOOKUP_TABLE default
            61.76603            68.83512            77.92072            88.91900           101.46569           114.04402           125.06035           133.73317           140.07705           144.58311           147.81435           150.18509           151.95960           153.30251            41.10583            54.92632            66.17348            79.42804            95.85248           112.77642           127.18702           137.69758           144.54590           148.75513           151.35545           153.05022           154.21341           155.03603            63.08818            62.72835            61.35124            69.70887            87.19380           108.60728           127.89050           141.51999           149.48762           153.51588           155.40082           156.27608           156.69982           156.93229            42.92473            49.66560            49.64976            57.81617            76.48701           101.92849           126.73796           144.67578           154.51974           158.65511           159.82329           159.77922           159.38643           158.95440            62.11519            58.25869            50.28357            53.48765            69.61112            96.02557           125.01021           147.32593           159.52563           164.00638           164.49890           163.51556           162.24144           161.09717           105.69247            76.46717            59.71181            56.96762            68.61634            93.32467           124.16645           149.96664           164.49527           169.47447           169.34063           167.39378           165.20577           163.30605            33.03320            42.25420            52.82530            58.37926            69.52454            92.76253           124.29401           152.61945           169.30395           174.88250           174.22685           171.34146           168.22020           165.55998            40.22034            43.42252            52.30375            57.91532            68.74270            91.67918           124.12344           154.79132           173.68305           180.09545           179.04782           175.26670           171.23171           167.79661            65.79799            48.76189            46.41232            50.69501            63.49335            88.20944           122.57473           155.96982           177.42587           184.97081           183.73144           179.13417           174.19481           169.99851            51.46631            43.71582            41.71243            46.10378            59.37808            84.63649           120.36666           156.46055           180.67976           189.59808           188.26687           182.89648           177.08364           172.13462            50.97109            45.12925            42.80169            45.93616            57.94482            82.46054           118.78660           157.12847           183.91903           194.13615           192.71042           186.55881           179.86305           174.17669            57.22883            44.97176            42.46808            45.88477            57.72224            82.02334           118.88973           158.95841           187.71517           198.82952           197.09169           190.08827           182.51373           176.09677            41.40216            40.13472            43.78630            48.76566            60.37750            84.33354           121.42453           162.50305           192.35134           203.72867           201.39599           193.43658           184.96241           177.85023            37.35303            41.60351            45.63034            50.48310            62.64957            87.44972           125.41976           167.28150           197.56263           208.66810           205.46769           196.49651           187.15336           179.38786            61.13665            48.59686            42.94166            46.99136            61.77556            89.46058           129.42999           172.25745           202.64122           213.18693           209.04931           199.10026           188.97150           180.65056            60.78686            50.80080            44.30016            48.22900            63.76714            92.49152           133.33238           176.57413           206.84267           216.79124           211.81039           201.07104           190.32622           181.57246            33.80449            41.33510            46.11503            53.37429            68.79323            96.58351           136.67859           179.53894           209.49817           218.99955           213.49249           202.25451           191.12864           182.10963            52.59424            49.30217            51.54262            58.42217            73.10755            99.75301           138.66073           180.68856           210.24661           219.56218           213.90475           202.54548           191.31972           182.22729            30.32076            34.51417            45.62941            58.70488            75.65927           101.99082           139.50261           180.18239           209.09572           218.39769           213.00860           201.90877           190.87791           181.92696            44.54792            41.13485            51.92804            65.51028            81.20042           105.18453           140.02165           178.43923           206.27072           215.65117           210.83063           200.35660           189.81762           181.21062            25.58650            32.49257            54.17065            73.37611            88.12222           108.77359           140.02632           175.54392           201.98925           211.48169           207.53856           197.99764           188.19609           180.11350            27.77295            37.56288            62.42171            81.42572            93.48071           110.82359           138.71696           171.41434           196.47369           206.20545           203.33210           194.96901           186.10693           178.68375            54.21695            55.40804            69.04976            81.64005            92.60426           109.39340           135.63398           166.29635           190.23599           200.24237           198.53856           191.46803           183.66762           177.01398            29.94935            44.54702            60.67692            74.24298            87.60094           105.92030           131.86296           161.12084           183.98571           194.14951           193.50525           187.71965           181.01632           175.17257            77.45391            73.93016            69.94033            72.79400            83.99191           103.07314           129.08070           157.08873           178.58585           188.43943           188.57306           183.94189           178.28919           173.25943            41.70413            48.46578            52.39349            62.03678            78.95630           101.78158           128.65544           155.12105           174.56684           183.51166           183.98558           180.28990           175.59574           171.32715            57.09007            57.79073            57.71660            66.01710            83.17708           106.42632           132.17552           155.73725           172.11454           179.45589           179.88130           176.87492           173.00559           169.44744            53.34134            65.02510            68.70691            77.00675            93.44818           115.48256           138.58382           158.09374           170.76105           176.12691           176.21801           173.74229           170.58866           167.65300            57.07310            64.22564            67.03861            78.82119            99.60695           123.53406           144.90444           160.53298           169.66688           173.17062           172.92565           170.86933           168.34594           165.98700            52.78721            58.48652            63.69525            79.80977           104.69792           129.99531           149.50927           161.84484           168.20872           170.34399           169.90097           168.25658           166.29439           164.44641            44.13812            58.83994            70.51499            88.19645           112.03443           135.06292           151.90484           161.71715           166.29292           167.61758           167.17971           165.94001           164.47078           163.06578            48.35706            60.05620            71.70752            89.97486           113.85553           136.42256           152.19429           160.71135           164.27213           165.18932           164.83532           163.94980           162.90559           161.87226            52.52719            61.03613            70.83229            89.33515           114.39039           137.60233           152.81626           160.18485           162.81650           163.30510           162.98268           162.35629           161.61357           160.87103            52.97534            65.41874            75.70467            94.30592           119.64686           142.19139           155.63623           161.07711           162.34688           162.18948           161.70691           161.16264           160.61476           160.07576            40.87743            56.02854            70.18637            93.91251           123.96646           148.07573           160.02501           163.18720           162.82896           161.82398           160.98815           160.38019           159.89555           159.46962            43.42525            55.08547            69.00499            95.72674           129.71233           154.95630           165.08937           165.89823           163.90966           161.99633           160.73799           159.95061           159.43270           159.03968            25.77588            44.36710            67.03044           100.60377           138.08576           162.58032           170.01043           168.54387           165.19333           162.52652           160.81668           159.80635           159.17699           158.74889            38.01935            53.41650            75.86836           110.61901           147.46952           169.08198           173.73709           170.66156           166.46367           163.23784           161.15359           159.86736           159.07502           158.58271            29.11363            48.18864            75.90647           114.18598           151.50037           171.94767           175.70874           172.20381           167.67683           164.11166           161.64787           160.06455           159.08466           158.48373            35.30008            52.21883            78.60016           115.69430           152.14602           172.81059           177.13930           173.81770           169.09075           165.12662           162.25596           160.34340           159.14688           158.43755            30.99961            48.14015            74.90764           113.04251           151.85502           174.89691           180.11089           176.46590           171.00310           166.33169           162.92407           160.63829           159.22679           158.39447            27.48436            44.36127            70.32559           110.54165           154.37384           180.85647           185.95061           180.53845           173.41989           167.61601           163.52858           160.86848           159.24114           158.31992            26.84733            42.33526            67.72240           111.57589           161.81753           190.99204           193.98079           185.33949           175.83620           168.68055           163.90470           160.90013           159.13906           158.16305            32.84940            47.32103            74.14687           121.98893           175.29156           202.88609           201.59585           189.18694           177.40804           169.10457           163.82314           160.65811           158.85746           157.90499            20.39217            41.99948            79.18934           133.59379           186.26927           209.56523           204.66455           190.12932           177.25409           168.49836           163.14417           160.04651           158.36593           157.52500            22.22399            44.75394            82.04031           133.44485           182.04054           204.28882           200.60090           187.26405           175.05852           166.78562           161.82552           159.06478           157.65558           157.02828            38.25164            51.70036            76.42868           118.19921           164.28858           190.38502           191.75693           181.79294           171.44355           164.23311           160.00987           157.79844           156.79432           156.44061            31.19895            44.26181            68.03147           107.95282           152.84089           180.08634           183.98849           176.29543           167.49805           161.37648           157.96648           156.38781           155.84054           155.80335            28.94603            47.29935            76.51881           117.10201           157.47508           179.54242           180.85361           172.62021           164.18968           158.71248           155.99127           154.99651           154.89927           155.18226            26.10597            49.08188            82.01356           124.68472           164.65957           183.55296           181.30123           171.00410           161.91940           156.59273           154.30453           153.78672           154.07875           154.63938            44.54427            58.66327            81.78455           122.26690           166.03327           186.91747           183.10013           170.76343           160.66098           155.11858           153.04974           152.86219           153.44574           154.22572            26.20848            46.76881            72.76768           116.08883           164.69573           188.76129           184.77517           171.16753           160.17187           154.32701           152.29731           152.29335           153.06480           153.98048            35.48222            53.93784            76.22331           116.48519           163.99563           188.85387           185.50329           171.75136           160.34158           154.22050           152.10383           152.13011           152.96981           153.94541            29.45823            47.68874            70.65522           110.67391           158.35400           185.51767           184.88203           172.40517           161.17529           154.83898           152.52109           152.42520           153.20156           154.13275            30.86753            48.60940            69.92840           106.61943           151.82549           180.72786           183.77805           173.51367           162.80142           156.26910           153.59526           153.20975           153.77026           154.54893            24.45743            42.35309            63.00880            97.77874           142.65398           175.20410           183.04513           175.46372           165.37705           158.50896           155.32368           154.46614           154.67097           155.19833            31.83104            44.46267            58.86374            89.49644           134.00944           170.53702           183.20209           178.32351           168.79663           161.49732           157.61960           156.14630           155.87060           156.05200            30.68415            43.16681            55.98311            84.62768           128.46936           167.34798           183.81721           181.50854           172.68302           164.97760           160.35490           158.16013           157.31593           157.07511            26.41682            40.62512            54.44724            82.18765           124.29250           163.57665           183.14712           183.88997           176.38032           168.60349           163.32053           160.39661           158.93604           158.22914            49.47818            52.03146            59.90958            82.88987           119.80411           157.05563           179.48799           184.37394           179.24853           171.99237           166.30031           162.71103           160.64072           159.45061            21.62196            36.05620            54.82747            79.72738           112.35291           146.96955           172.42910           182.50711           180.90116           174.87474           169.10459           164.98551           162.33973           160.68171            37.62532            46.24706            60.56964            78.70546           103.78458           134.98302           163.16225           178.74192           181.33233           177.14602           171.63397           167.13772           163.99134           161.88456            46.28207            48.01781            55.78917            69.18197            91.24549           121.91123           153.11456           173.85968           180.79564           178.79912           173.83882           169.11632           165.54055           163.04005            43.48760            42.56642            47.31357            59.35380            80.68521           111.16277           144.11911           168.76947           179.62742           179.92435           175.69271           170.88139           166.95983           164.11077            48.22833            46.86208            49.82923            59.24048            77.34703           104.88553           137.10762           163.94340           178.05742           180.59422           177.21065           172.42607           168.24388           165.08969            68.20734            62.64664            60.92810            64.99808            77.76337           100.80980           131.04430           159.15445           176.11571           180.85498           178.40721           173.75193           169.37422           165.97078            66.87743            62.01846            60.67102            64.04086            74.78927            95.38899           124.51611           154.06283           173.83800           180.80327           179.34919           174.86979           170.36206           166.74931            96.37406            71.25432            62.99016            62.92017            70.82774            89.18599           117.73521           148.96338           171.53280           180.62706           180.12879           175.84518           171.21640           167.43109            84.65933            69.16367            65.76432            63.84465            67.87479            83.62935           111.79579           144.73589           169.76506           180.63417           180.89360           176.73113           171.98400           168.03083           128.61120            83.38111            73.47003            65.94912            65.68967            79.62559           107.96218           142.42125           169.18415           181.14966           181.77516           177.57698           172.67272           168.55229            74.44089            54.36836            61.00647            61.03174            62.90398            77.79269           107.20842           142.74713           170.17873           182.30863           182.80125           178.38643           173.26946           168.98240            62.550