# vtk DataFile Version 3.0
Output from R2
ASCII
DATASET UNSTRUCTURED_GRID
POINTS       2940 double
     0.00000     0.00000   0.
     0.00000    -0.06250   0.
     0.00000    -0.14060   0.
     0.00000    -0.23830   0.
     0.00000    -0.36040   0.
     0.00000    -0.51290   0.
     0.00000    -0.70370   0.
     0.00000    -0.94210   0.
     0.00000    -1.24010   0.
     0.00000    -1.61260   0.
     0.00000    -2.07830   0.
     0.00000    -2.66040   0.
     0.00000    -3.38800   0.
     0.00000    -4.29750   0.
     0.00000    -5.43430   0.
     0.25000     0.00000   0.
     0.25000    -0.06250   0.
     0.25000    -0.14060   0.
     0.25000    -0.23830   0.
     0.25000    -0.36040   0.
     0.25000    -0.51290   0.
     0.25000    -0.70370   0.
     0.25000    -0.94210   0.
     0.25000    -1.24010   0.
     0.25000    -1.61260   0.
     0.25000    -2.07830   0.
     0.25000    -2.66040   0.
     0.25000    -3.38800   0.
     0.25000    -4.29750   0.
     0.25000    -5.43430   0.
     0.50000     0.00000   0.
     0.50000    -0.06250   0.
     0.50000    -0.14060   0.
     0.50000    -0.23830   0.
     0.50000    -0.36040   0.
     0.50000    -0.51290   0.
     0.50000    -0.70370   0.
     0.50000    -0.94210   0.
     0.50000    -1.24010   0.
     0.50000    -1.61260   0.
     0.50000    -2.07830   0.
     0.50000    -2.66040   0.
     0.50000    -3.38800   0.
     0.50000    -4.29750   0.
     0.50000    -5.43430   0.
     0.75000     0.00000   0.
     0.75000    -0.06250   0.
     0.75000    -0.14060   0.
     0.75000    -0.23830   0.
     0.75000    -0.36040   0.
     0.75000    -0.51290   0.
     0.75000    -0.70370   0.
     0.75000    -0.94210   0.
     0.75000    -1.24010   0.
     0.75000    -1.61260   0.
     0.75000    -2.07830   0.
     0.75000    -2.66040   0.
     0.75000    -3.38800   0.
     0.75000    -4.29750   0.
     0.75000    -5.43430   0.
     1.00000     0.00000   0.
     1.00000    -0.06250   0.
     1.00000    -0.14060   0.
     1.00000    -0.23830   0.
     1.00000    -0.36040   0.
     1.00000    -0.51290   0.
     1.00000    -0.70370   0.
     1.00000    -0.94210   0.
     1.00000    -1.24010   0.
     1.00000    -1.61260   0.
     1.00000    -2.07830   0.
     1.00000    -2.66040   0.
     1.00000    -3.38800   0.
     1.00000    -4.29750   0.
     1.00000    -5.43430   0.
     1.25000     0.00000   0.
     1.25000    -0.06250   0.
     1.25000    -0.14060   0.
     1.25000    -0.23830   0.
     1.25000    -0.36040   0.
     1.25000    -0.51290   0.
     1.25000    -0.70370   0.
     1.25000    -0.94210   0.
     1.25000    -1.24010   0.
     1.25000    -1.61260   0.
     1.25000    -2.07830   0.
     1.25000    -2.66040   0.
     1.25000    -3.38800   0.
     1.25000    -4.29750   0.
     1.25000    -5.43430   0.
     1.50000     0.00000   0.
     1.50000    -0.06250   0.
     1.50000    -0.14060   0.
     1.50000    -0.23830   0.
     1.50000    -0.36040   0.
     1.50000    -0.51290   0.
     1.50000    -0.70370   0.
     1.50000    -0.94210   0.
     1.50000    -1.24010   0.
     1.50000    -1.61260   0.
     1.50000    -2.07830   0.
     1.50000    -2.66040   0.
     1.50000    -3.38800   0.
     1.50000    -4.29750   0.
     1.50000    -5.43430   0.
     1.75000     0.00000   0.
     1.75000    -0.06250   0.
     1.75000    -0.14060   0.
     1.75000    -0.23830   0.
     1.75000    -0.36040   0.
     1.75000    -0.51290   0.
     1.75000    -0.70370   0.
     1.75000    -0.94210   0.
     1.75000    -1.24010   0.
     1.75000    -1.61260   0.
     1.75000    -2.07830   0.
     1.75000    -2.66040   0.
     1.75000    -3.38800   0.
     1.75000    -4.29750   0.
     1.75000    -5.43430   0.
     2.00000     0.00000   0.
     2.00000    -0.06250   0.
     2.00000    -0.14060   0.
     2.00000    -0.23830   0.
     2.00000    -0.36040   0.
     2.00000    -0.51290   0.
     2.00000    -0.70370   0.
     2.00000    -0.94210   0.
     2.00000    -1.24010   0.
     2.00000    -1.61260   0.
     2.00000    -2.07830   0.
     2.00000    -2.66040   0.
     2.00000    -3.38800   0.
     2.00000    -4.29750   0.
     2.00000    -5.43430   0.
     2.25000     0.00000   0.
     2.25000    -0.06250   0.
     2.25000    -0.14060   0.
     2.25000    -0.23830   0.
     2.25000    -0.36040   0.
     2.25000    -0.51290   0.
     2.25000    -0.70370   0.
     2.25000    -0.94210   0.
     2.25000    -1.24010   0.
     2.25000    -1.61260   0.
     2.25000    -2.07830   0.
     2.25000    -2.66040   0.
     2.25000    -3.38800   0.
     2.25000    -4.29750   0.
     2.25000    -5.43430   0.
     2.50000     0.00000   0.
     2.50000    -0.06250   0.
     2.50000    -0.14060   0.
     2.50000    -0.23830   0.
     2.50000    -0.36040   0.
     2.50000    -0.51290   0.
     2.50000    -0.70370   0.
     2.50000    -0.94210   0.
     2.50000    -1.24010   0.
     2.50000    -1.61260   0.
     2.50000    -2.07830   0.
     2.50000    -2.66040   0.
     2.50000    -3.38800   0.
     2.50000    -4.29750   0.
     2.50000    -5.43430   0.
     2.75000     0.00000   0.
     2.75000    -0.06250   0.
     2.75000    -0.14060   0.
     2.75000    -0.23830   0.
     2.75000    -0.36040   0.
     2.75000    -0.51290   0.
     2.75000    -0.70370   0.
     2.75000    -0.94210   0.
     2.75000    -1.24010   0.
     2.75000    -1.61260   0.
     2.75000    -2.07830   0.
     2.75000    -2.66040   0.
     2.75000    -3.38800   0.
     2.75000    -4.29750   0.
     2.75000    -5.43430   0.
     3.00000     0.00000   0.
     3.00000    -0.06250   0.
     3.00000    -0.14060   0.
     3.00000    -0.23830   0.
     3.00000    -0.36040   0.
     3.00000    -0.51290   0.
     3.00000    -0.70370   0.
     3.00000    -0.94210   0.
     3.00000    -1.24010   0.
     3.00000    -1.61260   0.
     3.00000    -2.07830   0.
     3.00000    -2.66040   0.
     3.00000    -3.38800   0.
     3.00000    -4.29750   0.
     3.00000    -5.43430   0.
     3.25000     0.00000   0.
     3.25000    -0.06250   0.
     3.25000    -0.14060   0.
     3.25000    -0.23830   0.
     3.25000    -0.36040   0.
     3.25000    -0.51290   0.
     3.25000    -0.70370   0.
     3.25000    -0.94210   0.
     3.25000    -1.24010   0.
     3.25000    -1.61260   0.
     3.25000    -2.07830   0.
     3.25000    -2.66040   0.
     3.25000    -3.38800   0.
     3.25000    -4.29750   0.
     3.25000    -5.43430   0.
     3.50000     0.00000   0.
     3.50000    -0.06250   0.
     3.50000    -0.14060   0.
     3.50000    -0.23830   0.
     3.50000    -0.36040   0.
     3.50000    -0.51290   0.
     3.50000    -0.70370   0.
     3.50000    -0.94210   0.
     3.50000    -1.24010   0.
     3.50000    -1.61260   0.
     3.50000    -2.07830   0.
     3.50000    -2.66040   0.
     3.50000    -3.38800   0.
     3.50000    -4.29750   0.
     3.50000    -5.43430   0.
     3.75000     0.00000   0.
     3.75000    -0.06250   0.
     3.75000    -0.14060   0.
     3.75000    -0.23830   0.
     3.75000    -0.36040   0.
     3.75000    -0.51290   0.
     3.75000    -0.70370   0.
     3.75000    -0.94210   0.
     3.75000    -1.24010   0.
     3.75000    -1.61260   0.
     3.75000    -2.07830   0.
     3.75000    -2.66040   0.
     3.75000    -3.38800   0.
     3.75000    -4.29750   0.
     3.75000    -5.43430   0.
     4.00000     0.00000   0.
     4.00000    -0.06250   0.
     4.00000    -0.14060   0.
     4.00000    -0.23830   0.
     4.00000    -0.36040   0.
     4.00000    -0.51290   0.
     4.00000    -0.70370   0.
     4.00000    -0.94210   0.
     4.00000    -1.24010   0.
     4.00000    -1.61260   0.
     4.00000    -2.07830   0.
     4.00000    -2.66040   0.
     4.00000    -3.38800   0.
     4.00000    -4.29750   0.
     4.00000    -5.43430   0.
     4.25000     0.00000   0.
     4.25000    -0.06250   0.
     4.25000    -0.14060   0.
     4.25000    -0.23830   0.
     4.25000    -0.36040   0.
     4.25000    -0.51290   0.
     4.25000    -0.70370   0.
     4.25000    -0.94210   0.
     4.25000    -1.24010   0.
     4.25000    -1.61260   0.
     4.25000    -2.07830   0.
     4.25000    -2.66040   0.
     4.25000    -3.38800   0.
     4.25000    -4.29750   0.
     4.25000    -5.43430   0.
     4.50000     0.00000   0.
     4.50000    -0.06250   0.
     4.50000    -0.14060   0.
     4.50000    -0.23830   0.
     4.50000    -0.36040   0.
     4.50000    -0.51290   0.
     4.50000    -0.70370   0.
     4.50000    -0.94210   0.
     4.50000    -1.24010   0.
     4.50000    -1.61260   0.
     4.50000    -2.07830   0.
     4.50000    -2.66040   0.
     4.50000    -3.38800   0.
     4.50000    -4.29750   0.
     4.50000    -5.43430   0.
     4.75000     0.00000   0.
     4.75000    -0.06250   0.
     4.75000    -0.14060   0.
     4.75000    -0.23830   0.
     4.75000    -0.36040   0.
     4.75000    -0.51290   0.
     4.75000    -0.70370   0.
     4.75000    -0.94210   0.
     4.75000    -1.24010   0.
     4.75000    -1.61260   0.
     4.75000    -2.07830   0.
     4.75000    -2.66040   0.
     4.75000    -3.38800   0.
     4.75000    -4.29750   0.
     4.75000    -5.43430   0.
     5.00000     0.00000   0.
     5.00000    -0.06250   0.
     5.00000    -0.14060   0.
     5.00000    -0.23830   0.
     5.00000    -0.36040   0.
     5.00000    -0.51290   0.
     5.00000    -0.70370   0.
     5.00000    -0.94210   0.
     5.00000    -1.24010   0.
     5.00000    -1.61260   0.
     5.00000    -2.07830   0.
     5.00000    -2.66040   0.
     5.00000    -3.38800   0.
     5.00000    -4.29750   0.
     5.00000    -5.43430   0.
     5.25000     0.00000   0.
     5.25000    -0.06250   0.
     5.25000    -0.14060   0.
     5.25000    -0.23830   0.
[...]
POINT_DATA      2940
CELL_DATA      2730
SCALARS Resistivity(Ohm-m) double 1
LOOKUP_TABLE default
            60.47790            63.67933            68.18749            73.74253            79.88529            85.76626            90.62646            94.17890            96.51583            97.96151            98.84189            99.35664            99.65245            99.83719            49.92288            57.11082            63.33204            70.66997            79.15916            87.21248            93.48615            97.58637            99.85331           100.89966           101.24664           101.25160           101.12538           100.96968            58.27875            59.72908            60.82240            66.82800            76.89834            87.66220            96.18037           101.33839           103.65784           104.22800           103.95176           103.36977           102.74679           102.19684            48.20727            54.19028            55.48651            61.69106            73.46723            87.12469            98.36649           105.05175           107.68601           107.85096           106.90995           105.66710           104.49007           103.50618            71.12224            65.48903            57.68912            60.15055            71.32845            86.53441           100.16095           108.59413           111.77147           111.61220           110.00916           108.08494           106.32467           104.87522            86.17119            68.54360            58.54903            60.09245            70.61562            86.35281           101.66839           111.75025           115.65482           115.35898           113.17250           110.56575           108.20471           106.27598            32.53247            40.60079            49.06382            57.66773            69.69596            85.93700           102.54356           114.27788           119.18885           118.97154           116.29567           113.04617           110.09553           107.68515            37.04373            41.47357            48.68596            56.69731            68.17628            84.52605           102.38401           115.96754           122.20881           122.34168           119.33390           115.50022           111.97208           109.08518            50.91675            45.91895            46.74545            52.51265            63.99080            81.30844           100.97679           116.80487           124.74026           125.49364           122.28300           117.90800           113.82019           110.46794            46.01840            43.04003            43.03707            48.18840            59.71978            77.80114            99.16721           117.26843           127.02467           128.51421           125.16433           120.27983           115.64413           111.82872            43.43361            41.96489            42.30914            46.92835            57.80319            75.80244            98.15987           118.06751           129.41733           131.56236           128.04589           122.63396           117.43988           113.16096            49.61566            44.00261            43.80932            47.98305            58.18212            75.81049            98.61786           119.73251           132.22553           134.76750           130.96022           124.97046           119.20177           114.45599            37.51992            39.16997            43.57719            49.39281            59.75814            77.31728           100.46070           122.36069           135.53752           138.16556           133.90932           127.27596           120.91059           115.69486            35.46509            39.45440            43.77956            49.74917            60.72396            79.03621           102.98086           125.63647           139.22139           141.68216           136.83382           129.50312           122.53309           116.85552            55.79733            48.00357            44.43331            48.45268            60.34109            80.22933           105.55241           129.12152           143.00666           145.15157           139.63191           131.58781           124.02621           117.90955            54.87386            48.61127            44.59822            48.62718            61.10792            81.93631           108.24888           132.54997           146.62076           148.37728           142.17229           133.44395           125.33803           118.82872            37.42674            41.54565            44.65765            51.03405            63.89932            84.67734           111.13876           135.71888           149.80019           151.14396           144.31151           134.98837           126.42261           119.58614            50.23876            46.59681            48.45130            54.89610            67.39588            87.68834           113.85445           138.35908           152.29476           153.25397           145.92011           136.14360           127.23567           120.15982            32.53287            36.04257            44.59525            55.37959            69.66963            90.21122           116.09230           140.28567           153.93475           154.56822           146.90491           136.85654           127.75233           120.54067            43.94475            40.69590            48.62893            59.66252            73.52185            93.16320           118.09469           141.52125           154.67626           155.04112           147.24068           137.11972           127.97149           120.72675            29.64232            34.18233            48.23212            62.87339            77.32014            96.06933           119.72629           142.02744           154.52219           154.69614           146.95805           136.95911           127.90809           120.72357            29.58847            36.00566            51.79110            67.10013            81.01138            98.55989           120.74644           141.73969           153.52059           153.61489           146.12655           136.42057           127.59061           120.54874            58.41923            53.58874            61.19454            71.26000            83.08762            99.64637           120.74329           140.63186           151.80860           151.94763           144.85522           135.57386           127.06316           120.23105            37.01290            45.42551            55.79847            67.08612            80.67246            98.43604           119.62570           138.93255           149.67271           149.92048           143.29151           134.50968           126.38270           119.80893            77.43480            67.28628            61.92452            66.11012            78.40167            96.87912           118.43455           137.32007           147.56570           147.82235           141.61399           133.33840           125.62039           119.32937            50.49975            53.91192            53.82186            60.83849            75.74561            96.23558           118.36908           136.57735           145.95853           145.94070           140.00175           132.17379           124.84988           118.83899            56.17713            58.61884            57.19156            63.76205            78.90463            99.48137           120.75583           137.28637           145.15894           144.48209           138.60122           131.11528           124.13522           118.37737            57.66726            64.65855            65.53431            72.22613            86.73901           106.01948           125.19081           139.21656           145.11213           143.49786           137.49220           130.23026           123.52131           117.97238            54.90307            63.48238            67.37581            76.72649            92.89877           112.21235           129.77478           141.47215           145.47020           142.89951           136.68054           129.54371           123.02845           117.63801            55.51770            61.55649            66.39039            78.18716            96.47898           116.52217           133.24333           143.32450           145.90822           142.57390           136.14022           129.05712           122.66398           117.38249            48.69130            58.85342            67.42268            80.80358            99.53896           119.42066           135.49181           144.61896           146.33287           142.47969           135.86117           128.77563           122.43881           117.21730            51.71280            60.83423            69.20416            82.56857           101.28001           121.09946           136.94463           145.63863           146.86919           142.66048           135.85923           128.70961           122.36418           117.15362            58.14053            64.99684            71.46215            84.22012           102.91195           122.76433           138.46778           146.86247           147.73129           143.19715           136.16172           128.86966           122.44688           117.19697            60.26600            67.96603            73.83504            86.29027           105.02338           124.89406           140.43245           148.52861           149.03265           144.12795           136.77648           129.25455           122.68353           117.34442            49.67658            59.74044            68.88888            84.09680           105.11173           126.40458           142.46768           150.52646           150.72786           145.41832           137.67405           129.84174           123.05808           117.58465            51.36405            58.36368            66.58319            82.66183           105.33356           128.00221           144.67617           152.78833           152.73414           147.00235           138.80524           130.59601           123.54650           117.90105            36.83357            48.21484            61.94178            82.20132           107.29152           130.72369           147.34746           155.27474           154.95473           148.80212           140.11587           131.48004           124.12211           118.27354            44.15339            53.10171            67.14058            88.08997           112.75093           134.83914           150.34854           157.81331           157.25075           150.71732           141.53810           132.44908           124.75399           118.67960            38.19010            50.86664            69.07502            92.47505           117.09366           138.02450           152.73696           160.05091           159.44742           152.62854           142.98751           133.44733           125.40646           119.09669            40.88759            53.20324            70.77842            93.44604           117.62936           138.62866           153.89313           161.80599           161.45195           154.44866           144.38767           134.41628           126.03893           119.49915            40.03692            50.34585            65.84641            87.95188           113.75808           137.20142           154.42287           163.40886           163.35994           156.15502           145.68190           135.30396           126.61456           119.86260            37.69701            46.97141            60.91498            83.23049           111.09836           137.05762           155.89646           165.45464           165.32450           157.73740           146.81849           136.06152           127.09764           120.16321            37.00487            46.94160            61.66031            85.11400           114.17132           140.67410           159.26287           168.15715           167.31199           159.11480           147.72746           136.63763           127.45156           120.37607            41.07837            50.57802            66.02140            90.90711           120.62178           146.32406           163.39021           170.84327           168.95091           160.08947           148.30378           136.97416           127.64148           120.47913            29.18047            41.70662            62.05768            91.10751           123.39333           149.52888           165.81839           172.30655           169.69154           160.41637           148.43486           137.01716           127.64185           120.46072            30.52125            42.50287            62.79808            91.51285           123.08328           148.96736           165.32623           171.84412           169.19561           159.94364           148.05314           136.73815           127.44471           120.32244            46.92085            54.69494            69.51031            92.85520           120.60524           145.45108           162.46598           169.75670           167.60398           158.73293           147.18674           136.15259           127.06029           120.07162            42.07371            51.06593            66.09794            88.46811           115.75577           141.20541           159.16637           167.13506           165.44751           157.03629           145.95701           135.31833           126.51410           119.71874            40.79891            50.19121            65.53293            88.14413           115.46457           140.52194           157.77242           165.14103           163.29235           155.14556           144.52104           134.31820           125.84714           119.28317            36.01090            50.03648            68.21080            92.48234           120.11445           143.65382           158.52551           164.02736           161.36754           153.23764           143.00051           133.23078           125.10922           118.79554            50.80466            61.09341            74.59019            97.02063           124.43389           146.87345           159.55378           163.11574           159.52922           151.34458           141.46556           132.12233           124.35147           118.29077            39.59470            53.68577            68.85070            93.13225           122.98236           146.74180           159.03553           161.65509           157.56007           149.45661           139.96709           131.04981           123.62015           117.80086            43.74641            55.93382            68.15817            90.62882           120.05772           144.32704           156.97509           159.55676           155.46457           147.62802           138.56202           130.05778           122.94894           117.35121            39.32294            52.25454            65.17963            87.30570           116.18491           140.70577           154.06667           157.17428           153.43653           145.97556           137.32168           129.18966           122.36445           116.95956            36.02432            48.95521            62.11641            83.63449           111.95028           136.78502           151.06594           154.96347           151.72400           144.63529           136.32199           128.48682           121.88744           116.63653            31.32184            44.64330            57.38656            78.51934           107.09376           132.89179           148.38475           153.20460           150.49062           143.70454           135.62078           127.98138           121.53512           116.39210            36.03064            46.28166            55.04590            73.94772           102.35911           129.21074           146.06135           151.91611           149.75792           143.20860           135.24123           127.69088           121.32019           116.23473            35.02686            45.04948            52.74073            70.60807            98.36000           125.69013           143.84743           150.92773           149.44352           143.11495           135.17400           127.61356           121.24113           116.16225            34.50443            44.82664            52.53727            69.10041            95.04543           122.01488           141.40518           150.00019           149.40187           143.33868           135.37167           127.72233           121.28011           116.16260            49.02422            50.29731            54.94577            69.24888            92.47323           118.27554           138.69806           149.00764           149.50117           143.77284           135.75577           127.96510           121.40669           116.21921            26.61027            36.37060            49.70652            67.26657            89.70428           114.52506           135.80936           147.88428           149.61877           144.30550           136.24145           128.28329           121.58403           116.30970            38.07290            43.91740            55.40305            69.91442            88.44481           111.01330           132.70366           146.49909           149.59610           144.80361           136.73781           128.62203           121.78121           116.41608            47.12572            48.74910            55.83718            66.88465            83.43622           105.69587           128.74873           144.61952           149.27859           145.14940           137.16683           128.93513           121.97160           116.52252            42.54231            43.70196            48.68103            58.92853            75.94652            99.42933           124.34845           142.34311           148.61458           145.25750           137.45979           129.17812           122.12658           116.60915            52.65614            49.12881            50.07521            57.59056            72.83599            95.50391           120.78285           140.06458           147.67568           145.10435           137.57534           129.31283           122.21359           116.64935            64.64328            60.41417            58.84976            62.58373            74.07673            93.94821           118.07639           137.79334           146.45683           144.67493           137.49240           129.31566           122.21032           116.62374            68.20984            64.86495            63.04232            65.01060            74.10584            91.90627           115.04495           135.14150           144.85429           143.93757           137.19218           129.17135           122.10607           116.52613            83.24880            69.45244            63.95595            64.32048            72.06017            88.62661           111.28584           131.99377           142.85511           142.88184           136.65480           128.86113           121.89021           116.35650            82.99769            70.45651            65.80630            64.71842            70.36668            85.31011           107.44247           128.74135           140.68215           141.61292           135.91772           128.38903           121.55379           116.10639           107.61439            78.13039            69.84096            66.00946            69.08652            82.50819           104.19432           125.91093           138.64643           140.28976           135.05958           127.79413           121.11207           115.77346            63.93393            57.67477            61.33434            62.39592            66.63778            80.19689           101.92856           123.83737           136.92380           138.97949           134.10735           127.10003           120.59089           115.37480            54.647