# vtk DataFile Version 3.0
Output from R2
ASCII
DATASET UNSTRUCTURED_GRID
POINTS       2940 double
     0.00000     0.00000   0.
     0.00000    -0.06250   0.
     0.00000    -0.14060   0.
     0.00000    -0.23830   0.
     0.00000    -0.36040   0.
     0.00000    -0.51290   0.
     0.00000    -0.70370   0.
     0.00000    -0.94210   0.
     0.00000    -1.24010   0.
     0.00000    -1.61260   0.
     0.00000    -2.07830   0.
     0.00000    -2.66040   0.
     0.00000    -3.38800   0.
     0.00000    -4.29750   0.
     0.00000    -5.43430   0.
     0.25000     0.00000   0.
     0.25000    -0.06250   0.
     0.25000    -0.14060   0.
     0.25000    -0.23830   0.
     0.25000    -0.36040   0.
     0.25000    -0.51290   0.
     0.25000    -0.70370   0.
     0.25000    -0.94210   0.
     0.25000    -1.24010   0.
     0.25000    -1.61260   0.
     0.25000    -2.07830   0.
     0.25000    -2.66040   0.
     0.25000    -3.38800   0.
     0.25000    -4.29750   0.
     0.25000    -5.43430   0.
     0.50000     0.00000   0.
     0.50000    -0.06250   0.
     0.50000    -0.14060   0.
     0.50000    -0.23830   0.
     0.50000    -0.36040   0.
     0.50000    -0.51290   0.
     0.50000    -0.70370   0.
     0.50000    -0.94210   0.
     0.50000    -1.24010   0.
     0.50000    -1.61260   0.
     0.50000    -2.07830   0.
     0.50000    -2.66040   0.
     0.50000    -3.38800   0.
     0.50000    -4.29750   0.
     0.50000    -5.43430   0.
     0.75000     0.00000   0.
     0.75000    -0.06250   0.
     0.75000    -0.14060   0.
     0.75000    -0.23830   0.
     0.75000    -0.36040   0.
     0.75000    -0.51290   0.
     0.75000    -0.70370   0.
     0.75000    -0.94210   0.
     0.75000    -1.24010   0.
     0.75000    -1.61260   0.
     0.75000    -2.07830   0.
     0.75000    -2.66040   0.
     0.75000    -3.38800   0.
     0.75000    -4.29750   0.
     0.75000    -5.43430   0.
     1.00000     0.00000   0.
     1.00000    -0.06250   0.
     1.00000    -0.14060   0.
     1.00000    -0.23830   0.
     1.00000    -0.36040   0.
     1.00000    -0.51290   0.
     1.00000    -0.70370   0.
     1.00000    -0.94210   0.
     1.00000    -1.24010   0.
     1.00000    -1.61260   0.
     1.00000    -2.07830   0.
     1.00000    -2.66040   0.
     1.00000    -3.38800   0.
     1.00000    -4.29750   0.
     1.00000    -5.43430   0.
     1.25000     0.00000   0.
     1.25000    -0.06250   0.
     1.25000    -0.14060   0.
     1.25000    -0.23830   0.
     1.25000    -0.36040   0.
     1.25000    -0.51290   0.
     1.25000    -0.70370   0.
     1.25000    -0.94210   0.
     1.25000    -1.24010   0.
     1.25000    -1.61260   0.
     1.25000    -2.07830   0.
     1.25000    -2.66040   0.
     1.25000    -3.38800   0.
     1.25000    -4.29750   0.
     1.25000    -5.43430   0.
     1.50000     0.00000   0.
     1.50000    -0.06250   0.
     1.50000    -0.14060   0.
     1.50000    -0.23830   0.
     1.50000    -0.36040   0.
     1.50000    -0.51290   0.
     1.50000    -0.70370   0.
     1.50000    -0.94210   0.
     1.50000    -1.24010   0.
     1.50000    -1.61260   0.
     1.50000    -2.07830   0.
     1.50000    -2.66040   0.
     1.50000    -3.38800   0.
     1.50000    -4.29750   0.
     1.50000    -5.43430   0.
     1.75000     0.00000   0.
     1.75000    -0.06250   0.
     1.75000    -0.14060   0.
     1.75000    -0.23830   0.
     1.75000    -0.36040   0.
     1.75000    -0.51290   0.
     1.75000    -0.70370   0.
     1.75000    -0.94210   0.
     1.75000    -1.24010   0.
     1.75000    -1.61260   0.
     1.75000    -2.07830   0.
     1.75000    -2.66040   0.
     1.75000    -3.38800   0.
     1.75000    -4.29750   0.
     1.75000    -5.43430   0.
     2.00000     0.00000   0.
     2.00000    -0.06250   0.
     2.00000    -0.14060   0.
     2.00000    -0.23830   0.
     2.00000    -0.36040   0.
     2.00000    -0.51290   0.
     2.00000    -0.70370   0.
     2.00000    -0.94210   0.
     2.00000    -1.24010   0.
     2.00000    -1.61260   0.
     2.00000    -2.07830   0.
     2.00000    -2.66040   0.
     2.00000    -3.38800   0.
     2.00000    -4.29750   0.
     2.00000    -5.43430   0.
     2.25000     0.00000   0.
     2.25000    -0.06250   0.
     2.25000    -0.14060   0.
     2.25000    -0.23830   0.
     2.25000    -0.36040   0.
     2.25000    -0.51290   0.
     2.25000    -0.70370   0.
     2.25000    -0.94210   0.
     2.25000    -1.24010   0.
     2.25000    -1.61260   0.
     2.25000    -2.07830   0.
     2.25000    -2.66040   0.
     2.25000    -3.38800   0.
     2.25000    -4.29750   0.
     2.25000    -5.43430   0.
     2.50000     0.00000   0.
     2.50000    -0.06250   0.
     2.50000    -0.14060   0.
     2.50000    -0.23830   0.
     2.50000    -0.36040   0.
     2.50000    -0.51290   0.
     2.50000    -0.70370   0.
     2.50000    -0.94210   0.
     2.50000    -1.24010   0.
     2.50000    -1.61260   0.
     2.50000    -2.07830   0.
     2.50000    -2.66040   0.
     2.50000    -3.38800   0.
     2.50000    -4.29750   0.
     2.50000    -5.43430   0.
     2.75000     0.00000   0.
     2.75000    -0.06250   0.
     2.75000    -0.14060   0.
     2.75000    -0.23830   0.
     2.75000    -0.36040   0.
     2.75000    -0.51290   0.
     2.75000    -0.70370   0.
     2.75000    -0.94210   0.
     2.75000    -1.24010   0.
     2.75000    -1.61260   0.
     2.75000    -2.07830   0.
     2.75000    -2.66040   0.
     2.75000    -3.38800   0.
     2.75000    -4.29750   0.
     2.75000    -5.43430   0.
     3.00000     0.00000   0.
     3.00000    -0.06250   0.
     3.00000    -0.14060   0.
     3.00000    -0.23830   0.
     3.00000    -0.36040   0.
     3.00000    -0.51290   0.
     3.00000    -0.70370   0.
     3.00000    -0.94210   0.
     3.00000    -1.24010   0.
     3.00000    -1.61260   0.
     3.00000    -2.07830   0.
     3.00000    -2.66040   0.
     3.00000    -3.38800   0.
     3.00000    -4.29750   0.
     3.00000    -5.43430   0.
     3.25000     0.00000   0.
     3.25000    -0.06250   0.
     3.25000    -0.14060   0.
     3.25000    -0.23830   0.
     3.25000    -0.36040   0.
     3.25000    -0.51290   0.
     3.25000    -0.70370   0.
     3.25000    -0.94210   0.
     3.25000    -1.24010   0.
     3.25000    -1.61260   0.
     3.25000    -2.07830   0.
     3.25000    -2.66040   0.
     3.25000    -3.38800   0.
     3.25000    -4.29750   0.
     3.25000    -5.43430   0.
     3.50000     0.00000   0.
     3.50000    -0.06250   0.
     3.50000    -0.14060   0.
     3.50000    -0.23830   0.
     3.50000    -0.36040   0.
     3.50000    -0.51290   0.
     3.50000    -0.70370   0.
     3.50000    -0.94210   0.
     3.50000    -1.24010   0.
     3.50000    -1.61260   0.
     3.50000    -2.07830   0.
     3.50000    -2.66040   0.
     3.50000    -3.38800   0.
     3.50000    -4.29750   0.
     3.50000    -5.43430   0.
     3.75000     0.00000   0.
     3.75000    -0.06250   0.
     3.75000    -0.14060   0.
     3.75000    -0.23830   0.
     3.75000    -0.36040   0.
     3.75000    -0.51290   0.
     3.75000    -0.70370   0.
     3.75000    -0.94210   0.
     3.75000    -1.24010   0.
     3.75000    -1.61260   0.
     3.75000    -2.07830   0.
     3.75000    -2.66040   0.
     3.75000    -3.38800   0.
     3.75000    -4.29750   0.
     3.75000    -5.43430   0.
     4.00000     0.00000   0.
     4.00000    -0.06250   0.
     4.00000    -0.14060   0.
     4.00000    -0.23830   0.
     4.00000    -0.36040   0.
     4.00000    -0.51290   0.
     4.00000    -0.70370   0.
     4.00000    -0.94210   0.
     4.00000    -1.24010   0.
     4.00000    -1.61260   0.
     4.00000    -2.07830   0.
     4.00000    -2.66040   0.
     4.00000    -3.38800   0.
     4.00000    -4.29750   0.
     4.00000    -5.43430   0.
     4.25000     0.00000   0.
     4.25000    -0.06250   0.
     4.25000    -0.14060   0.
     4.25000    -0.23830   0.
     4.25000    -0.36040   0.
     4.25000    -0.51290   0.
     4.25000    -0.70370   0.
     4.25000    -0.94210   0.
     4.25000    -1.24010   0.
     4.25000    -1.61260   0.
     4.25000    -2.07830   0.
     4.25000    -2.66040   0.
     4.25000    -3.38800   0.
     4.25000    -4.29750   0.
     4.25000    -5.43430   0.
     4.50000     0.00000   0.
     4.50000    -0.06250   0.
     4.50000    -0.14060   0.
     4.50000    -0.23830   0.
     4.50000    -0.36040   0.
     4.50000    -0.51290   0.
     4.50000    -0.70370   0.
     4.50000    -0.94210   0.
     4.50000    -1.24010   0.
     4.50000    -1.61260   0.
     4.50000    -2.07830   0.
     4.50000    -2.66040   0.
     4.50000    -3.38800   0.
     4.50000    -4.29750   0.
     4.50000    -5.43430   0.
     4.75000     0.00000   0.
     4.75000    -0.06250   0.
     4.75000    -0.14060   0.
     4.75000    -0.23830   0.
     4.75000    -0.36040   0.
     4.75000    -0.51290   0.
     4.75000    -0.70370   0.
     4.75000    -0.94210   0.
     4.75000    -1.24010   0.
     4.75000    -1.61260   0.
     4.75000    -2.07830   0.
     4.75000    -2.66040   0.
     4.75000    -3.38800   0.
     4.75000    -4.29750   0.
     4.75000    -5.43430   0.
     5.00000     0.00000   0.
     5.00000    -0.06250   0.
     5.00000    -0.14060   0.
     5.00000    -0.23830   0.
     5.00000    -0.36040   0.
     5.00000    -0.51290   0.
     5.00000    -0.70370   0.
     5.00000    -0.94210   0.
     5.00000    -1.24010   0.
     5.00000    -1.61260   0.
     5.00000    -2.07830   0.
     5.00000    -2.66040   0.
     5.00000    -3.38800   0.
     5.00000    -4.29750   0.
     5.00000    -5.43430   0.
     5.25000     0.00000   0.
     5.25000    -0.06250   0.
     5.25000    -0.14060   0.
     5.25000    -0.23830   0.
[...]
POINT_DATA      2940
CELL_DATA      2730
SCALARS Resistivity(Ohm-m) double 1
LOOKUP_TABLE default
            63.28723            69.84685            77.92849            88.00016           100.20635           113.22589           125.35995           135.49421           143.37720           149.34103           153.88128           157.39867           160.16059           162.33062            39.19953            54.59388            65.74949            78.45711            94.94140           112.94729           129.15724           141.51579           149.89559           155.30109           158.87545           161.39338           163.27428           164.72477            68.10669            65.00530            60.99232            67.68154            85.08232           108.42812           130.92297           147.47651           157.25815           162.23307           164.65376           165.94325           166.76090           167.35815            43.19891            49.54665            48.00827            54.76146            73.23544           101.14069           130.67015           152.92901           165.06479           169.86495           171.05002           170.94042           170.54410           170.18211            62.82423            57.85044            47.67221            49.29420            65.40048            95.01418           130.14552           158.16524           173.11057           177.94042           177.85748           176.24098           174.53046           173.13791           123.17749            79.94259            57.05215            51.80425            63.88960            92.73969           130.91785           163.45569           181.08119           186.09099           184.81649           181.67999           178.61361           176.15495            35.73892            42.91040            52.60610            55.64851            66.59615            93.60491           132.46482           168.01280           188.22744           193.80330           191.60915           187.06751           182.68544           179.16335            42.99665            46.58748            54.58445            57.03800            66.81033            92.53090           131.64497           169.99424           193.48703           200.50451           197.93269           192.23972           186.63887           182.10011            74.16868            48.88627            43.01332            45.98493            58.96548            86.08149           126.44690           168.33197           196.31476           205.92332           203.65107           197.10692           190.41941           184.92226            57.73540            47.52997            42.26898            44.14554            55.49517            80.35875           119.84868           164.55944           197.43998           210.35189           208.85027           201.68273           194.00731           187.60695            50.41992            49.54591            47.09371            47.41703            55.72692            77.26023           114.88696           161.36300           198.47460           214.52777           213.80909           206.04320           197.41354           190.14121            56.24691            43.44177            41.70810            45.40123            55.39641            76.55467           113.44616           161.04863           201.04459           219.22969           218.81029           210.27149           200.64242           192.51020            36.46242            38.61775            45.79111            51.91620            61.15402            80.84575           116.74462           164.61408           205.87398           224.81015           223.96161           214.36152           203.65982           194.67328            34.84019            44.51999            51.82271            56.42604            65.30847            85.45278           122.04605           170.60830           212.29434           230.92681           229.04095           218.17544           206.37670           196.57617            59.57029            46.19653            40.41721            45.28971            59.79338            85.52723           125.98987           176.61174           218.76453           236.71807           233.58571           221.45465           208.64905           198.13186            60.87421            52.71890            44.75138            47.37060            61.11301            87.57269           129.59006           181.49285           223.92063           241.23540           237.05152           223.90510           210.32060           199.26525            31.42673            45.46252            52.35410            57.45073            68.64685            92.37792           133.01404           184.53103           226.78362           243.70657           238.96919           225.27440           211.25199           199.89178            46.99271            46.98054            52.55086            60.55498            72.85190            95.69813           134.76442           185.04679           226.77447           243.68736           239.04559           225.38722           211.35297           199.97174            27.09809            33.79225            48.60589            63.05620            76.77793            98.15508           134.86262           183.05316           223.87903           241.10000           237.21365           224.20607           210.60177           199.48795            38.99507            42.13326            57.97825            71.78451            82.08702            99.81606           133.25436           178.75311           218.40970           236.20558           233.63850           221.82665           209.05863           198.48024            24.17485            33.08982            58.22590            76.60840            85.35652            99.93250           130.08719           172.67854           211.03028           229.54732           228.66910           218.44949           206.83461           197.01330            24.51690            41.20198            71.46564            87.29865            90.54323           100.43644           126.66470           165.97329           202.76483           221.90767           222.80810           214.37128           204.09517           195.18265            51.61306            59.92967            77.24903            87.50241            90.83299            99.84853           123.52310           159.79575           194.77930           214.16501           216.61439           209.91601           201.03286           193.09971            24.52646            43.59283            63.98714            79.01187            88.10404            99.28553           121.79957           155.41517           188.18670           207.11827           210.60002           205.39997           197.83047           190.87363            68.12959            76.83779            80.17158            83.76298            89.72656           100.91129           122.56356           153.70695           183.71254           201.30298           205.12515           201.04556           194.63257           188.59528            34.21194            45.01871            54.29340            67.54551            83.42514           101.30440           125.14482           154.68649           181.47733           196.86517           200.33534           196.98189           191.52953           186.33008            56.89776            56.37039            57.98631            67.85179            84.22834           105.03241           130.47770           158.14773           181.06503           193.54843           196.15020           193.20865           188.55699           184.11291            52.49387            69.98162            74.24795            79.03539            91.68281           112.62932           138.31253           163.10471           181.49475           190.77360           192.32468           189.65804           185.71035           181.96587            66.12686            68.75563            65.97361            74.12698            93.97338           120.48836           146.68753           167.66075           181.41744           187.83851           188.57715           186.23441           182.97341           179.89277            52.12069            56.31004            59.34566            75.99256           103.41786           131.74959           154.15090           169.82787           179.67009           184.25144           184.71868           182.89293           180.34088           177.90783            42.60140            62.64790            76.78335            96.35435           120.20873           141.04190           156.49952           167.96660           175.89863           179.99624           180.80329           179.66934           177.84561           176.02854            47.31529            58.61202            72.34610            93.23348           117.20315           137.14206           151.82176           163.06019           171.15637           175.68117           177.11821           176.69938           175.54689           174.29865            50.09512            59.16349            70.52261            89.64777           112.99013           133.17021           148.10626           159.38060           167.50339           172.21765           174.05364           174.15310           173.53203           172.74492            50.22057            69.75554            83.02517           100.59069           121.81582           139.30056           151.16842           159.81699           166.24417           170.16567           171.83294           172.12843           171.83804           171.39686            38.46207            54.49424            69.22793            95.79580           127.43113           149.01043           158.71060           163.52216           167.04108           169.35950           170.39037           170.58838           170.45171           170.24216            42.55610            54.76076            69.05286            99.85706           137.50310           160.67718           167.26946           168.02585           168.54799           169.16815           169.42202           169.39151           169.30018           169.25263            20.66112            45.95748            74.93183           114.12044           152.78086           171.62289           173.35580           170.80377           169.35108           168.85568           168.57469           168.36766           168.30354           168.37497            37.23464            56.04193            83.72575           124.08976           160.65265           175.02795           173.91640           170.41077           168.67142           168.00247           167.60794           167.38041           167.38175           167.57249            25.53460            47.38137            79.51855           121.69221           156.86509           170.07127           169.70847           167.58498           166.84571           166.67658           166.49127           166.37908           166.49258           166.81008            35.51148            54.69939            84.06612           121.63986           152.45572           164.81342           165.77032           164.98440           165.06769           165.32724           165.35533           165.38342           165.62506           166.07174            28.72201            49.61612            81.39850           121.21733           153.97474           167.01872           167.20026           165.22905           164.50199           164.40479           164.35636           164.42628           164.76885           165.34467            24.53033            46.35744            79.31451           124.88224           165.16654           179.53500           175.56163           169.03975           165.45028           164.01798           163.49989           163.48959           163.90516           164.60824            23.60918            42.95946            74.71804           128.11634           180.76071           197.84439           187.79088           174.73635           167.13103           163.81621           162.62465           162.49104           162.99262           163.84604            30.52891            46.61596            79.55070           140.13298           200.01945           215.57020           198.49566           179.34726           168.16508           163.20857           161.48304           161.32371           161.98512           163.03249            17.86978            45.51282            93.71430           161.27762           216.30034           224.11444           202.16351           180.19067           167.37255           161.69979           159.87319           159.91263           160.84645           162.15828            20.23424            50.02227            97.03172           157.29223           205.42945           214.06759           196.06494           176.41827           164.44663           159.18135           157.76867           158.25452           159.59958           161.24037            36.88484            49.87658            75.94535           123.53476           173.39381           192.98621           184.55119           169.94532           160.18393           156.01396           155.35749           156.46414           158.30152           160.32178            29.17884            42.51568            68.44118           113.64257           160.73198           181.04952           175.82860           164.03589           155.96534           152.82966           152.95819           154.70903           157.06097           159.45861            26.58820            51.82241            89.87931           135.57567           172.07309           182.32384           173.08677           160.65644           152.86877           150.22186           150.89527           153.18091           155.98271           158.72488            23.16780            51.25599            91.89415           140.44672           178.41304           186.75872           174.46504           160.00685           151.35607           148.54491           149.42378           152.04342           155.17929           158.18362            45.22303            57.97660            83.12952           130.24321           177.73370           191.87165           178.56659           161.63812           151.41577           147.93738           148.67750           151.41681           154.73442           157.89923            21.90055            47.39717            78.70424           129.78744           182.42069           198.83793           183.90446           164.58517           152.71391           148.35234           148.72572           151.36699           154.70285           157.90548            34.42480            56.61635            84.06913           131.95513           183.35950           201.02129           187.05881           167.47170           154.80659           149.70594           149.57269           151.93551           155.12334           158.23463            26.51280            45.38440            72.27335           119.30052           171.36888           194.38105           186.42261           169.76021           157.56915           151.98606           151.25588           153.15297           156.01739           158.89788            30.34261            49.75608            75.23979           115.46683           160.50128           185.43185           184.47830           172.36656           161.34882           155.33656           153.81800           155.02806           157.38056           159.89154            23.23052            43.25040            67.27414           103.09487           146.05693           176.44132           183.81287           176.57745           166.62459           159.89053           157.27263           157.53896           159.18528           161.18386            33.71747            44.20751            58.46827            89.21166           133.71044           171.48401           186.52158           183.11230           173.51718           165.58549           161.53491           160.60548           161.36581           162.73176            29.92254            43.11464            56.98134            86.62028           131.77281           172.96283           192.23176           191.12616           181.38244           172.02400           166.34346           164.06218           163.81739           164.46524            25.03561            41.55330            56.78569            86.27547           130.80670           173.06978           195.77421           197.77087           188.80914           178.48413           171.32313           167.69386           166.40777           166.29557            53.63631            52.91804            59.38647            83.06258           122.33367           163.83208           191.85599           200.15723           194.32388           184.23828           176.07251           171.26673           168.99261           168.13930            21.34467            36.70437            54.92384            77.48647           108.91214           147.15221           180.92627           197.85375           197.36471           188.81988           180.29083           174.58554           171.44529           169.90857            42.59907            50.61273            61.91649            74.58689            96.19875           130.33541           168.08272           192.87948           198.31363           192.14500           183.81160           177.51419           173.66872           171.53971            52.07544            49.42584            53.64236            63.80134            84.20730           117.62583           157.33270           187.25922           197.76628           194.26700           186.55953           179.96320           175.59673           172.98431            47.01079            44.17254            46.83132            57.64861            78.35939           110.26351           149.01985           181.29501           195.84447           195.15682           188.46934           181.88593           177.18900           174.21550            45.48167            46.78756            50.55238            59.93873            77.25977           104.74684           140.63406           174.00994           192.28717           194.74437           189.51366           183.25644           178.43529           175.22585            69.45308            66.21427            64.31243            66.61530            76.87975            98.40701           130.91766           165.09516           187.14649           193.13600           189.76381           184.12243           179.36113           176.02920            60.19926            61.11270            62.40757            65.59458            73.79080            91.49104           120.97259           155.58800           181.15534           190.75204           189.44584           184.60708           180.03447           176.66273            88.82170            72.24610            66.59743            67.14783            72.17057            85.76207           112.19281           146.88517           175.41769           188.26432           188.92168           184.89572           180.54962           177.17907            70.63038            65.88255            68.94015            69.47182            70.16375            80.03507           104.74492           140.06106           171.03978           186.41261           188.58998           185.19219           181.01345           177.62913           123.10273            81.41862            77.25649            70.76478            66.14293            74.48952            99.68758           136.42305           169.11299           185.85975           188.79914           185.66751           181.50513           178.05508            72.02465            50.70415            62.83351            63.81155            61.76585            72.20298            99.41838           137.45188           170.43710           187.01567           189.72634           186.39832           182.06736           178.47676            64.735